<?xml version="1.0" encoding="UTF-8"?>

<!-- generated on 05/15/20 10:29:51 by Eclipse SUMO Version 1.5.0
<configuration xmlns:xsi="http://www.w3.org/2001/XMLSchema-instance" xsi:noNamespaceSchemaLocation="http://sumo.dlr.de/xsd/sumoConfiguration.xsd">

    <input>
        <net-file value="Netz_V12.net.xml"/>
        <route-files value="routes_trucks_10.rou.xml,routes_cars_10.rou.xml"/>
        <additional-files value="osm.poly.xml,WAUT_T50.add.xml,Output_T50/output.add.xml"/>
    </input>

    <output>
        <fcd-output value="Output_T50/fcd.xml"/>
        <summary-output value="Output_T50/summary.xml"/>
        <tripinfo-output value="Output_T50/tripinfo.xml"/>
    </output>

    <time>
        <step-length value="0.5"/>
    </time>

    <processing>
        <ignore-route-errors value="true"/>
        <time-to-teleport value="120"/>
    </processing>

    <routing>
        <device.rerouting.adaptation-steps value="180"/>
    </routing>

    <report>
        <verbose value="true"/>
        <duration-log.statistics value="true"/>
        <no-step-log value="true"/>
    </report>

    <random_number>
        <seed value="100"/>
    </random_number>

    <gui_only>
        <gui-settings-file value="osm.view.xml"/>
        <tracker-interval value="0.5"/>
    </gui_only>

</configuration>
-->

<meandata xmlns:xsi="http://www.w3.org/2001/XMLSchema-instance" xsi:noNamespaceSchemaLocation="http://sumo.dlr.de/xsd/meandata_file.xsd">
    <interval begin="0.00" end="900.00" id="Det_Emission">
        <edge id="-15973619#7" sampledSeconds="0.00" CO_abs="0" CO2_abs="0" HC_abs="0" PMx_abs="0" NOx_abs="0" fuel_abs="0" electricity_abs="0"
            CO_normed="0" CO2_normed="0" HC_normed="0" PMx_normed="0" NOx_normed="0" fuel_normed="0" electricity_normed="0"/>
        <edge id="-22972469#2" sampledSeconds="87.15" CO_abs="41.816891" CO2_abs="54393.779093" HC_abs="2.185736" PMx_abs="0.906095" NOx_abs="43.802720" fuel_abs="21.907031" electricity_abs="0"
            CO_normed="3.057349" CO2_normed="3976.880211" HC_normed="0.159805" PMx_normed="0.066247" NOx_normed="3.202538" fuel_normed="1.601684" electricity_normed="0"
            traveltime="39.40" CO_perVeh="18.904331" CO2_perVeh="24590.015321" HC_perVeh="0.988114" PMx_perVeh="0.409622" NOx_perVeh="19.802072" fuel_perVeh="9.903600" electricity_perVeh="0"/>
        <edge id="-25042806#1" sampledSeconds="43.02" CO_abs="49.026637" CO2_abs="58477.021293" HC_abs="2.731989" PMx_abs="0.693478" NOx_abs="54.382401" fuel_abs="24.007112" electricity_abs="0"
            CO_normed="3.020276" CO2_normed="3602.465504" HC_normed="0.168304" PMx_normed="0.042722" NOx_normed="3.350217" fuel_normed="1.478953" electricity_normed="0"
            traveltime="5.01" CO_perVeh="5.704429" CO2_perVeh="6804.015828" HC_perVeh="0.317877" PMx_perVeh="0.080689" NOx_perVeh="6.327592" fuel_perVeh="2.793315" electricity_perVeh="0"/>
        <edge id="-25945760#0" sampledSeconds="12.78" CO_abs="4.783871" CO2_abs="14884.018135" HC_abs="1.355609" PMx_abs="0.263272" NOx_abs="37.301365" fuel_abs="5.636512" electricity_abs="0"
            CO_normed="0.459435" CO2_normed="1429.437516" HC_normed="0.130191" PMx_normed="0.025284" NOx_normed="3.582364" fuel_normed="0.541322" electricity_normed="0"
            traveltime="5.61" CO_perVeh="2.099560" CO2_perVeh="6532.343049" HC_perVeh="0.594954" PMx_perVeh="0.115546" NOx_perVeh="16.370936" fuel_perVeh="2.473770" electricity_perVeh="0"/>
        <edge id="-335462921#5" sampledSeconds="58.97" CO_abs="1876.948936" CO2_abs="223101.066704" HC_abs="31.998084" PMx_abs="3.328008" NOx_abs="405.972803" fuel_abs="91.042143" electricity_abs="0"
            CO_normed="106.614538" CO2_normed="12672.596802" HC_normed="1.817557" PMx_normed="0.189038" NOx_normed="23.060085" fuel_normed="5.171380" electricity_normed="0"
            traveltime="5.50" CO_perVeh="175.205122" CO2_perVeh="20825.526402" HC_perVeh="2.986884" PMx_perVeh="0.310655" NOx_perVeh="37.895818" fuel_perVeh="8.498393" electricity_perVeh="0"/>
        <edge id="-375311153#1" sampledSeconds="0.00" CO_abs="0" CO2_abs="0" HC_abs="0" PMx_abs="0" NOx_abs="0" fuel_abs="0" electricity_abs="0"
            CO_normed="0" CO2_normed="0" HC_normed="0" PMx_normed="0" NOx_normed="0" fuel_normed="0" electricity_normed="0"/>
        <edge id="-375311158#2" sampledSeconds="18.25" CO_abs="32.288340" CO2_abs="28105.679409" HC_abs="0.920706" PMx_abs="0.203903" NOx_abs="4.293069" fuel_abs="11.977470" electricity_abs="0"
            CO_normed="2.914110" CO2_normed="2536.613665" HC_normed="0.083096" PMx_normed="0.018403" NOx_normed="0.387461" fuel_normed="1.080999" electricity_normed="0"
            traveltime="5.52" CO_perVeh="9.770717" CO2_perVeh="8505.009637" HC_perVeh="0.278613" PMx_perVeh="0.061703" NOx_perVeh="1.299118" fuel_perVeh="3.624481" electricity_perVeh="0"/>
        <edge id="-4612403#0" sampledSeconds="0.00" CO_abs="0" CO2_abs="0" HC_abs="0" PMx_abs="0" NOx_abs="0" fuel_abs="0" electricity_abs="0"
            CO_normed="0" CO2_normed="0" HC_normed="0" PMx_normed="0" NOx_normed="0" fuel_normed="0" electricity_normed="0"/>
        <edge id="-505526660#2" sampledSeconds="38.52" CO_abs="2446.190289" CO2_abs="137489.862451" HC_abs="20.772543" PMx_abs="2.122110" NOx_abs="164.722174" fuel_abs="58.402960" electricity_abs="0"
            CO_normed="780.283984" CO2_normed="43856.415455" HC_normed="6.626011" PMx_normed="0.676909" NOx_normed="52.542958" fuel_normed="18.629333" electricity_normed="0"
            traveltime="0.93" CO_perVeh="59.104482" CO2_perVeh="3322.009393" HC_perVeh="0.501903" PMx_perVeh="0.051274" NOx_perVeh="3.979992" fuel_perVeh="1.411124" electricity_perVeh="0"/>
        <edge id="-707107510#2" sampledSeconds="337.77" CO_abs="186.978853" CO2_abs="191619.598734" HC_abs="10.102328" PMx_abs="3.322302" NOx_abs="185.824830" fuel_abs="76.338939" electricity_abs="0"
            CO_normed="12.244850" CO2_normed="12548.762196" HC_normed="0.661580" PMx_normed="0.217571" NOx_normed="12.169275" fuel_normed="4.999276" electricity_normed="0"
            traveltime="39.37" CO_perVeh="21.793588" CO2_perVeh="22334.496908" HC_perVeh="1.177491" PMx_perVeh="0.387236" NOx_perVeh="21.659079" fuel_perVeh="8.897794" electricity_perVeh="0"/>
        <edge id="-71143837" sampledSeconds="78.63" CO_abs="107.149805" CO2_abs="118836.540743" HC_abs="5.071404" PMx_abs="1.258975" NOx_abs="88.875249" fuel_abs="49.221134" electricity_abs="0"
            CO_normed="7.572424" CO2_normed="8398.342102" HC_normed="0.358403" PMx_normed="0.088974" NOx_normed="6.280936" fuel_normed="3.478525" electricity_normed="0"
            traveltime="4.04" CO_perVeh="5.501342" CO2_perVeh="6101.368111" HC_perVeh="0.260379" PMx_perVeh="0.064639" NOx_perVeh="4.563080" fuel_perVeh="2.527137" electricity_perVeh="0"/>
        <edge id="-81113584#2" sampledSeconds="24.14" CO_abs="1859.916131" CO2_abs="132059.514644" HC_abs="21.004181" PMx_abs="2.132346" NOx_abs="173.776505" fuel_abs="55.361757" electricity_abs="0"
            CO_normed="217.216482" CO2_normed="15423.009009" HC_normed="2.453043" PMx_normed="0.249033" NOx_normed="20.295066" fuel_normed="6.465607" electricity_normed="0"
            traveltime="2.70" CO_perVeh="208.281151" CO2_perVeh="14788.574171" HC_perVeh="2.352136" PMx_perVeh="0.238789" NOx_perVeh="19.460216" fuel_perVeh="6.199640" electricity_perVeh="0"/>
        <edge id="108488061#1" sampledSeconds="324.73" CO_abs="1577.856909" CO2_abs="514138.905331" HC_abs="25.908027" PMx_abs="5.508775" NOx_abs="324.098747" fuel_abs="214.910670" electricity_abs="0"
            CO_normed="34.362866" CO2_normed="11197.014326" HC_normed="0.564230" PMx_normed="0.119971" NOx_normed="7.058284" fuel_normed="4.680365" electricity_normed="0"
            traveltime="13.77" CO_perVeh="66.921674" CO2_perVeh="21806.182815" HC_perVeh="1.098838" PMx_perVeh="0.233644" NOx_perVeh="13.746006" fuel_perVeh="9.115010" electricity_perVeh="0"/>
        <edge id="120359703" sampledSeconds="225.44" CO_abs="1021.956928" CO2_abs="359800.845872" HC_abs="17.030178" PMx_abs="3.662225" NOx_abs="204.177086" fuel_abs="150.800541" electricity_abs="0"
            CO_normed="77.523757" CO2_normed="27293.824834" HC_normed="1.291878" PMx_normed="0.277810" NOx_normed="15.488495" fuel_normed="11.439449" electricity_normed="0"
            traveltime="3.84" CO_perVeh="17.393145" CO2_perVeh="6123.612462" HC_perVeh="0.289844" PMx_perVeh="0.062329" NOx_perVeh="3.474982" fuel_perVeh="2.566542" electricity_perVeh="0"/>
        <edge id="15973619#7" sampledSeconds="0.00" CO_abs="0" CO2_abs="0" HC_abs="0" PMx_abs="0" NOx_abs="0" fuel_abs="0" electricity_abs="0"
            CO_normed="0" CO2_normed="0" HC_normed="0" PMx_normed="0" NOx_normed="0" fuel_normed="0" electricity_normed="0"/>
        <edge id="199847241#0" sampledSeconds="4.73" CO_abs="10.757758" CO2_abs="10994.077588" HC_abs="1.165616" PMx_abs="0.103784" NOx_abs="14.659259" fuel_abs="4.457140" electricity_abs="0"
            CO_normed="9.605141" CO2_normed="9816.140703" HC_normed="1.040729" PMx_normed="0.092664" NOx_normed="13.088624" fuel_normed="3.979589" electricity_normed="0"
            traveltime="0.32" CO_perVeh="0.736247" CO2_perVeh="752.420831" HC_perVeh="0.079773" PMx_perVeh="0.007103" NOx_perVeh="1.003261" fuel_perVeh="0.305041" electricity_perVeh="0"/>
        <edge id="199847241#1" sampledSeconds="11.30" CO_abs="18.838138" CO2_abs="19482.634702" HC_abs="1.057599" PMx_abs="0.185727" NOx_abs="14.627233" fuel_abs="8.081356" electricity_abs="0"
            CO_normed="4.318198" CO2_normed="4465.933456" HC_normed="0.242429" PMx_normed="0.042574" NOx_normed="3.352947" fuel_normed="1.852460" electricity_normed="0"
            traveltime="1.26" CO_perVeh="2.103843" CO2_perVeh="2175.820644" HC_perVeh="0.118113" PMx_perVeh="0.020742" NOx_perVeh="1.633569" fuel_perVeh="0.902526" electricity_perVeh="0"/>
        <edge id="199847244#1" sampledSeconds="6.18" CO_abs="9.658645" CO2_abs="9631.622223" HC_abs="0.358348" PMx_abs="0.086093" NOx_abs="4.609172" fuel_abs="4.041896" electricity_abs="0"
            CO_normed="3.039699" CO2_normed="3031.195035" HC_normed="0.112777" PMx_normed="0.027095" NOx_normed="1.450565" fuel_normed="1.272036" electricity_normed="0"
            traveltime="0.89" CO_perVeh="1.384787" CO2_perVeh="1380.912786" HC_perVeh="0.051377" PMx_perVeh="0.012343" NOx_perVeh="0.660830" fuel_perVeh="0.579498" electricity_perVeh="0"/>
        <edge id="199847244#3" sampledSeconds="9.20" CO_abs="100.090265" CO2_abs="11271.773840" HC_abs="1.017427" PMx_abs="0.151246" NOx_abs="4.754602" fuel_abs="4.798644" electricity_abs="0"
            CO_normed="22.022060" CO2_normed="2480.038249" HC_normed="0.223856" PMx_normed="0.033277" NOx_normed="1.046117" fuel_normed="1.055807" electricity_normed="0"
            traveltime="1.44" CO_perVeh="15.686560" CO2_perVeh="1766.559038" HC_perVeh="0.159455" PMx_perVeh="0.023704" NOx_perVeh="0.745161" fuel_perVeh="0.752063" electricity_perVeh="0"/>
        <edge id="199847247#0" sampledSeconds="12.50" CO_abs="1924.438659" CO2_abs="74881.524548" HC_abs="13.504474" PMx_abs="1.359184" NOx_abs="32.490663" fuel_abs="32.737186" electricity_abs="0"
            CO_normed="475.757394" CO2_normed="18512.119789" HC_normed="3.338560" PMx_normed="0.336016" NOx_normed="8.032302" fuel_normed="8.093247" electricity_normed="0"
            traveltime="1.20" CO_perVeh="185.297652" CO2_perVeh="7210.087284" HC_perVeh="1.300300" PMx_perVeh="0.130871" NOx_perVeh="3.128415" fuel_perVeh="3.152152" electricity_perVeh="0"/>
        <edge id="199847247#1" sampledSeconds="363.02" CO_abs="361.789121" CO2_abs="187465.265609" HC_abs="8.000460" PMx_abs="2.333421" NOx_abs="66.944963" fuel_abs="78.350333" electricity_abs="0"
            CO_normed="24.321958" CO2_normed="12602.706932" HC_normed="0.537846" PMx_normed="0.156869" NOx_normed="4.500502" fuel_normed="5.267249" electricity_normed="0"
            traveltime="41.97" CO_perVeh="41.831428" CO2_perVeh="21675.443653" HC_perVeh="0.925044" PMx_perVeh="0.269799" NOx_perVeh="7.740430" fuel_perVeh="9.059162" electricity_perVeh="0"/>
        <edge id="199847252#1" sampledSeconds="30.71" CO_abs="1800.648752" CO2_abs="167642.392595" HC_abs="25.107506" PMx_abs="2.465043" NOx_abs="181.520302" fuel_abs="69.471368" electricity_abs="0"
            CO_normed="121.092720" CO2_normed="11273.866348" HC_normed="1.688467" PMx_normed="0.165773" NOx_normed="12.207149" fuel_normed="4.671914" electricity_normed="0"
            traveltime="4.70" CO_perVeh="275.271378" CO2_perVeh="25628.070092" HC_perVeh="3.838271" PMx_perVeh="0.376840" NOx_perVeh="27.749634" fuel_perVeh="10.620327" electricity_perVeh="0"/>
        <edge id="199847252#2" sampledSeconds="8.59" CO_abs="13.872655" CO2_abs="14838.247764" HC_abs="0.865479" PMx_abs="0.149438" NOx_abs="12.980792" fuel_abs="6.115023" electricity_abs="0"
            CO_normed="3.520978" CO2_normed="3766.052732" HC_normed="0.219665" PMx_normed="0.037928" NOx_normed="3.294617" fuel_normed="1.552036" electricity_normed="0"
            traveltime="1.07" CO_perVeh="1.724779" CO2_perVeh="1844.831057" HC_perVeh="0.107605" PMx_perVeh="0.018580" NOx_perVeh="1.613895" fuel_perVeh="0.760277" electricity_perVeh="0"/>
        <edge id="22972469#0" sampledSeconds="15.49" CO_abs="18.170828" CO2_abs="19411.187404" HC_abs="1.481640" PMx_abs="0.258025" NOx_abs="22.887697" fuel_abs="7.907559" electricity_abs="0"
            CO_normed="1.328520" CO2_normed="1419.205805" HC_normed="0.108327" PMx_normed="0.018865" NOx_normed="1.673383" fuel_normed="0.578144" electricity_normed="0"
            traveltime="7.16" CO_perVeh="8.394916" CO2_perVeh="8967.962024" HC_perVeh="0.684517" PMx_perVeh="0.119207" NOx_perVeh="10.574108" fuel_perVeh="3.653289" electricity_perVeh="0"/>
        <edge id="24214231#0" sampledSeconds="69.03" CO_abs="1462.666643" CO2_abs="123314.195475" HC_abs="10.616107" PMx_abs="1.604684" NOx_abs="73.510525" fuel_abs="52.343970" electricity_abs="0"
            CO_normed="171.222317" CO2_normed="14435.375531" HC_normed="1.242740" PMx_normed="0.187847" NOx_normed="8.605271" fuel_normed="6.127477" electricity_normed="0"
            traveltime="2.56" CO_perVeh="54.290155" CO2_perVeh="4577.083121" HC_perVeh="0.394041" PMx_perVeh="0.059561" NOx_perVeh="2.728508" fuel_perVeh="1.942864" electricity_perVeh="0"/>
        <edge id="25042806#1" sampledSeconds="19.87" CO_abs="32.022315" CO2_abs="32156.957027" HC_abs="1.217911" PMx_abs="0.302808" NOx_abs="16.405582" fuel_abs="13.478707" electricity_abs="0"
            CO_normed="1.972728" CO2_normed="1981.023073" HC_normed="0.075029" PMx_normed="0.018654" NOx_normed="1.010663" fuel_normed="0.830353" electricity_normed="0"
            traveltime="4.64" CO_perVeh="7.486709" CO2_perVeh="7518.188174" HC_perVeh="0.284743" PMx_perVeh="0.070796" NOx_perVeh="3.835570" fuel_perVeh="3.151276" electricity_perVeh="0"/>
        <edge id="25945760#0" sampledSeconds="74.90" CO_abs="101.185300" CO2_abs="93851.449476" HC_abs="4.032078" PMx_abs="1.088051" NOx_abs="58.068740" fuel_abs="39.175927" electricity_abs="0"
            CO_normed="9.717676" CO2_normed="9013.344487" HC_normed="0.387234" PMx_normed="0.104495" NOx_normed="5.576830" fuel_normed="3.762394" electricity_normed="0"
            traveltime="5.18" CO_perVeh="6.994221" CO2_perVeh="6487.283828" HC_perVeh="0.278709" PMx_perVeh="0.075209" NOx_perVeh="4.013879" fuel_perVeh="2.707953" electricity_perVeh="0"/>
        <edge id="335462921#3" sampledSeconds="288.69" CO_abs="205.702272" CO2_abs="151357.939161" HC_abs="6.610749" PMx_abs="2.240424" NOx_abs="94.030195" fuel_abs="61.889617" electricity_abs="0"
            CO_normed="11.699262" CO2_normed="8608.442438" HC_normed="0.375985" PMx_normed="0.127423" NOx_normed="5.347942" fuel_normed="3.519955" electricity_normed="0"
            traveltime="44.96" CO_perVeh="32.036496" CO2_perVeh="23572.797425" HC_perVeh="1.029572" PMx_perVeh="0.348928" NOx_perVeh="14.644456" fuel_perVeh="9.638816" electricity_perVeh="0"/>
        <edge id="375311153#1" sampledSeconds="0.00" CO_abs="0" CO2_abs="0" HC_abs="0" PMx_abs="0" NOx_abs="0" fuel_abs="0" electricity_abs="0"
            CO_normed="0" CO2_normed="0" HC_normed="0" PMx_normed="0" NOx_normed="0" fuel_normed="0" electricity_normed="0"/>
        <edge id="375311158#1" sampledSeconds="173.79" CO_abs="169.317225" CO2_abs="97392.472949" HC_abs="4.135662" PMx_abs="1.424038" NOx_abs="48.569944" fuel_abs="40.194616" electricity_abs="0"
            CO_normed="15.281338" CO2_normed="8789.934382" HC_normed="0.373255" PMx_normed="0.128523" NOx_normed="4.383569" fuel_normed="3.627673" electricity_normed="0"
            traveltime="38.92" CO_perVeh="37.922678" CO2_perVeh="21813.393982" HC_perVeh="0.926281" PMx_perVeh="0.318948" NOx_perVeh="10.878411" fuel_perVeh="9.002554" electricity_perVeh="0"/>
        <edge id="42747981#3" sampledSeconds="244.75" CO_abs="336.562693" CO2_abs="379559.243485" HC_abs="16.769483" PMx_abs="3.956171" NOx_abs="299.700112" fuel_abs="156.837581" electricity_abs="0"
            CO_normed="7.258590" CO2_normed="8185.889761" HC_normed="0.361665" PMx_normed="0.085322" NOx_normed="6.463581" fuel_normed="3.382489" electricity_normed="0"
            traveltime="13.26" CO_perVeh="18.241142" CO2_perVeh="20571.484103" HC_perVeh="0.908878" PMx_perVeh="0.214418" NOx_perVeh="16.243251" fuel_perVeh="8.500338" electricity_perVeh="0"/>
        <edge id="4611722#0" sampledSeconds="48.04" CO_abs="412.844253" CO2_abs="47620.883963" HC_abs="3.439496" PMx_abs="0.547486" NOx_abs="21.423438" fuel_abs="20.256227" electricity_abs="0"
            CO_normed="256.027444" CO2_normed="29532.331140" HC_normed="2.133021" PMx_normed="0.339526" NOx_normed="13.285853" fuel_normed="12.562001" electricity_normed="0"
            traveltime="0.52" CO_perVeh="4.444743" CO2_perVeh="512.693543" HC_perVeh="0.037030" PMx_perVeh="0.005894" NOx_perVeh="0.230648" fuel_perVeh="0.218082" electricity_perVeh="0"/>
        <edge id="4612403#0" sampledSeconds="0.00" CO_abs="0" CO2_abs="0" HC_abs="0" PMx_abs="0" NOx_abs="0" fuel_abs="0" electricity_abs="0"
            CO_normed="0" CO2_normed="0" HC_normed="0" PMx_normed="0" NOx_normed="0" fuel_normed="0" electricity_normed="0"/>
        <edge id="4773464#0" sampledSeconds="198.96" CO_abs="11489.329794" CO2_abs="746402.715938" HC_abs="113.149253" PMx_abs="11.613886" NOx_abs="1032.045299" fuel_abs="313.453630" electricity_abs="0"
            CO_normed="745.213543" CO2_normed="48412.694402" HC_normed="7.339014" PMx_normed="0.753292" NOx_normed="66.939861" fuel_normed="20.331028" electricity_normed="0"
            traveltime="4.74" CO_perVeh="273.461507" CO2_perVeh="17765.388858" HC_perVeh="2.693104" PMx_perVeh="0.276426" NOx_perVeh="24.564067" fuel_perVeh="7.460618" electricity_perVeh="0"/>
        <edge id="505526660#0" sampledSeconds="510.34" CO_abs="1002.279564" CO2_abs="313881.689530" HC_abs="21.091755" PMx_abs="4.298858" NOx_abs="215.316965" fuel_abs="130.086747" electricity_abs="0"
            CO_normed="320.217113" CO2_normed="100281.689946" HC_normed="6.738580" PMx_normed="1.373437" NOx_normed="68.791363" fuel_normed="41.561261" electricity_normed="0"
            traveltime="11.05" CO_perVeh="21.696051" CO2_perVeh="6794.504560" HC_perVeh="0.456567" PMx_perVeh="0.093056" NOx_perVeh="4.660903" fuel_perVeh="2.815950" electricity_perVeh="0"/>
        <edge id="66071390#2" sampledSeconds="49.79" CO_abs="67.800660" CO2_abs="75530.130123" HC_abs="3.234421" PMx_abs="0.799018" NOx_abs="57.067592" fuel_abs="31.269808" electricity_abs="0"
            CO_normed="7.946166" CO2_normed="8852.051582" HC_normed="0.379071" PMx_normed="0.093644" NOx_normed="6.688262" fuel_normed="3.664788" electricity_normed="0"
            traveltime="2.44" CO_perVeh="3.315524" CO2_perVeh="3693.502796" HC_perVeh="0.158167" PMx_perVeh="0.039073" NOx_perVeh="2.790665" fuel_perVeh="1.529126" electricity_perVeh="0"/>
        <edge id="707107510#0" sampledSeconds="19.44" CO_abs="1943.596849" CO2_abs="78465.101591" HC_abs="13.447201" PMx_abs="1.470813" NOx_abs="53.726940" fuel_abs="34.225293" electricity_abs="0"
            CO_normed="127.240383" CO2_normed="5136.831528" HC_normed="0.880341" PMx_normed="0.096289" NOx_normed="3.517312" fuel_normed="2.240608" electricity_normed="0"
            traveltime="4.53" CO_perVeh="452.567711" CO2_perVeh="18270.646750" HC_perVeh="3.131189" PMx_perVeh="0.342480" NOx_perVeh="12.510351" fuel_perVeh="7.969380" electricity_perVeh="0"/>
        <edge id="71143837" sampledSeconds="110.87" CO_abs="237.011182" CO2_abs="167743.149112" HC_abs="7.381500" PMx_abs="1.750852" NOx_abs="115.419465" fuel_abs="69.733967" electricity_abs="0"
            CO_normed="16.752867" CO2_normed="11856.734343" HC_normed="0.521753" PMx_normed="0.123757" NOx_normed="8.158294" fuel_normed="4.929066" electricity_normed="0"
            traveltime="4.27" CO_perVeh="9.131827" CO2_perVeh="6462.992462" HC_perVeh="0.284403" PMx_perVeh="0.067459" NOx_perVeh="4.447008" fuel_perVeh="2.686787" electricity_perVeh="0"/>
        <edge id="81113584#0" sampledSeconds="192.37" CO_abs="1047.989358" CO2_abs="132117.100200" HC_abs="11.232156" PMx_abs="2.232670" NOx_abs="62.719293" fuel_abs="55.238381" electricity_abs="0"
            CO_normed="121.541242" CO2_normed="15322.365926" HC_normed="1.302657" PMx_normed="0.258935" NOx_normed="7.273910" fuel_normed="6.406307" electricity_normed="0"
            traveltime="33.58" CO_perVeh="182.967112" CO2_perVeh="23066.154320" HC_perVeh="1.961008" PMx_perVeh="0.389799" NOx_perVeh="10.950081" fuel_perVeh="9.643998" electricity_perVeh="0"/>
        <edge id="KP12_1" sampledSeconds="416.40" CO_abs="7014.241620" CO2_abs="922446.537177" HC_abs="81.823694" PMx_abs="11.634116" NOx_abs="723.807826" fuel_abs="388.485373" electricity_abs="0"
            CO_normed="202.694455" CO2_normed="26656.452454" HC_normed="2.364505" PMx_normed="0.336198" NOx_normed="20.916279" fuel_normed="11.226279" electricity_normed="0"
            traveltime="10.33" CO_perVeh="173.946074" CO2_perVeh="22875.738071" HC_perVeh="2.029145" PMx_perVeh="0.288514" NOx_perVeh="17.949700" fuel_perVeh="9.634043" electricity_perVeh="0"/>
        <edge id="KP12_2" sampledSeconds="245.27" CO_abs="452.520082" CO2_abs="273429.155092" HC_abs="13.593516" PMx_abs="2.881160" NOx_abs="143.811639" fuel_abs="114.467177" electricity_abs="0"
            CO_normed="45.422342" CO2_normed="27445.837399" HC_normed="1.364468" PMx_normed="0.289200" NOx_normed="14.435296" fuel_normed="11.489804" electricity_normed="0"
            traveltime="5.63" CO_perVeh="10.396644" CO2_perVeh="6282.032093" HC_perVeh="0.312311" PMx_perVeh="0.066195" NOx_perVeh="3.304071" fuel_perVeh="2.629882" electricity_perVeh="0"/>
        <edge id="KP21_1" sampledSeconds="128.12" CO_abs="1087.119022" CO2_abs="313536.193667" HC_abs="29.479483" PMx_abs="3.493303" NOx_abs="336.077290" fuel_abs="129.133580" electricity_abs="0"
            CO_normed="109.340611" CO2_normed="31534.945302" HC_normed="2.964997" PMx_normed="0.351351" NOx_normed="33.802091" fuel_normed="12.988039" electricity_normed="0"
            traveltime="3.01" CO_perVeh="25.542474" CO2_perVeh="7366.709453" HC_perVeh="0.692637" PMx_perVeh="0.082077" NOx_perVeh="7.896325" fuel_perVeh="3.034066" electricity_perVeh="0"/>
        <edge id="KP21_2" sampledSeconds="788.46" CO_abs="1173.809065" CO2_abs="847124.065213" HC_abs="38.732401" PMx_abs="9.231530" NOx_abs="484.355786" fuel_abs="352.441948" electricity_abs="0"
            CO_normed="33.927569" CO2_normed="24485.123642" HC_normed="1.119514" PMx_normed="0.266827" NOx_normed="13.999734" fuel_normed="10.186920" electricity_normed="0"
            traveltime="20.10" CO_perVeh="29.920227" CO2_perVeh="21593.072775" HC_perVeh="0.987283" PMx_perVeh="0.235310" NOx_perVeh="12.346161" fuel_perVeh="8.983695" electricity_perVeh="0"/>
        <edge id="KP23_1" sampledSeconds="316.82" CO_abs="1699.006044" CO2_abs="539199.135625" HC_abs="27.539033" PMx_abs="5.492838" NOx_abs="283.716141" fuel_abs="226.739701" electricity_abs="0"
            CO_normed="64.429505" CO2_normed="20447.445416" HC_normed="1.044332" PMx_normed="0.208299" NOx_normed="10.759050" fuel_normed="8.598396" electricity_normed="0"
            traveltime="7.78" CO_perVeh="41.705917" CO2_perVeh="13235.852946" HC_perVeh="0.676007" PMx_perVeh="0.134834" NOx_perVeh="6.964449" fuel_perVeh="5.565835" electricity_perVeh="0"/>
        <edge id="KP23_2" sampledSeconds="624.27" CO_abs="583.180347" CO2_abs="388915.716971" HC_abs="17.901708" PMx_abs="5.681464" NOx_abs="229.837033" fuel_abs="159.524169" electricity_abs="0"
            CO_normed="72.153461" CO2_normed="48118.245218" HC_normed="2.214873" PMx_normed="0.702934" NOx_normed="28.436379" fuel_normed="19.736983" electricity_normed="0"
            traveltime="14.05" CO_perVeh="13.123603" CO2_perVeh="8751.967603" HC_perVeh="0.402851" PMx_perVeh="0.127853" NOx_perVeh="5.172139" fuel_perVeh="3.589853" electricity_perVeh="0"/>
        <edge id="KP32_1" sampledSeconds="97.40" CO_abs="1606.934502" CO2_abs="196163.741138" HC_abs="14.760908" PMx_abs="2.375854" NOx_abs="79.922243" fuel_abs="83.556964" electricity_abs="0"
            CO_normed="197.959286" CO2_normed="24165.536327" HC_normed="1.818406" PMx_normed="0.292683" NOx_normed="9.845672" fuel_normed="10.293436" electricity_normed="0"
            traveltime="2.36" CO_perVeh="38.975412" CO2_perVeh="4757.855769" HC_perVeh="0.358019" PMx_perVeh="0.057625" NOx_perVeh="1.938475" fuel_perVeh="2.026633" electricity_perVeh="0"/>
        <edge id="KP32_2" sampledSeconds="540.97" CO_abs="1091.074566" CO2_abs="584070.365263" HC_abs="24.976209" PMx_abs="6.439700" NOx_abs="282.052712" fuel_abs="244.108788" electricity_abs="0"
            CO_normed="41.371678" CO2_normed="22146.947209" HC_normed="0.947055" PMx_normed="0.244182" NOx_normed="10.694955" fuel_normed="9.256187" electricity_normed="0"
            traveltime="14.40" CO_perVeh="29.050790" CO2_perVeh="15551.370890" HC_perVeh="0.665013" PMx_perVeh="0.171462" NOx_perVeh="7.509894" fuel_perVeh="6.499604" electricity_perVeh="0"/>
        <edge id="KP34_1" sampledSeconds="165.12" CO_abs="5009.398519" CO2_abs="441819.602302" HC_abs="49.241181" PMx_abs="6.313600" NOx_abs="337.296513" fuel_abs="187.430721" electricity_abs="0"
            CO_normed="388.099827" CO2_normed="34229.680597" HC_normed="3.814928" PMx_normed="0.489142" NOx_normed="26.131824" fuel_normed="14.521071" electricity_normed="0"
            traveltime="3.89" CO_perVeh="117.868469" CO2_perVeh="10395.779037" HC_perVeh="1.158619" PMx_perVeh="0.148556" NOx_perVeh="7.936407" fuel_perVeh="4.410145" electricity_perVeh="0"/>
        <edge id="KP34_2" sampledSeconds="213.02" CO_abs="383.989199" CO2_abs="287948.932896" HC_abs="11.419660" PMx_abs="2.756479" NOx_abs="123.708310" fuel_abs="121.150739" electricity_abs="0"
            CO_normed="29.894060" CO2_normed="22417.199914" HC_normed="0.889035" PMx_normed="0.214596" NOx_normed="9.630853" fuel_normed="9.431743" electricity_normed="0"
            traveltime="5.01" CO_perVeh="9.036633" CO2_perVeh="6776.463808" HC_perVeh="0.268745" PMx_perVeh="0.064870" NOx_perVeh="2.911297" fuel_perVeh="2.851108" electricity_perVeh="0"/>
        <edge id="KP43_1" sampledSeconds="158.86" CO_abs="300.176577" CO2_abs="262770.146324" HC_abs="10.167686" PMx_abs="2.471990" NOx_abs="124.478378" fuel_abs="110.342193" electricity_abs="0"
            CO_normed="23.350959" CO2_normed="20441.084895" HC_normed="0.790952" PMx_normed="0.192298" NOx_normed="9.683266" fuel_normed="8.583601" electricity_normed="0"
            traveltime="3.73" CO_perVeh="7.052232" CO2_perVeh="6173.420018" HC_perVeh="0.238876" PMx_perVeh="0.058076" NOx_perVeh="2.924447" fuel_perVeh="2.592337" electricity_perVeh="0"/>
        <edge id="KP43_2" sampledSeconds="288.66" CO_abs="385.045939" CO2_abs="291741.441288" HC_abs="11.227211" PMx_abs="2.784492" NOx_abs="123.204147" fuel_abs="122.772764" electricity_abs="0"
            CO_normed="29.796552" CO2_normed="22576.238444" HC_normed="0.868811" PMx_normed="0.215476" NOx_normed="9.534080" fuel_normed="9.500698" electricity_normed="0"
            traveltime="6.80" CO_perVeh="9.072773" CO2_perVeh="6874.255017" HC_perVeh="0.264545" PMx_perVeh="0.065611" NOx_perVeh="2.903039" fuel_perVeh="2.892874" electricity_perVeh="0"/>
        <edge id="KP45_1" sampledSeconds="52.03" CO_abs="752.618537" CO2_abs="120800.546651" HC_abs="9.699038" PMx_abs="1.564066" NOx_abs="64.350057" fuel_abs="50.958573" electricity_abs="0"
            CO_normed="250.455420" CO2_normed="40199.849135" HC_normed="3.227633" PMx_normed="0.520488" NOx_normed="21.414328" fuel_normed="16.957928" electricity_normed="0"
            traveltime="0.91" CO_perVeh="13.204219" CO2_perVeh="2119.369703" HC_perVeh="0.170164" PMx_perVeh="0.027441" NOx_perVeh="1.128981" fuel_perVeh="0.894036" electricity_perVeh="0"/>
        <edge id="KP45_2" sampledSeconds="591.73" CO_abs="933.906048" CO2_abs="545994.151335" HC_abs="26.848470" PMx_abs="6.159100" NOx_abs="281.042634" fuel_abs="227.773185" electricity_abs="0"
            CO_normed="54.718386" CO2_normed="31990.282779" HC_normed="1.573076" PMx_normed="0.360867" NOx_normed="16.466538" fuel_normed="13.345433" electricity_normed="0"
            traveltime="13.55" CO_perVeh="21.392582" CO2_perVeh="12506.851742" HC_perVeh="0.615006" PMx_perVeh="0.141084" NOx_perVeh="6.437722" fuel_perVeh="5.217502" electricity_perVeh="0"/>
        <edge id="KP54_1" sampledSeconds="197.49" CO_abs="5215.518694" CO2_abs="451533.690864" HC_abs="44.418314" PMx_abs="5.818759" NOx_abs="243.534281" fuel_abs="192.395914" electricity_abs="0"
            CO_normed="340.772211" CO2_normed="29502.364643" HC_normed="2.902209" PMx_normed="0.380187" NOx_normed="15.912073" fuel_normed="12.570788" electricity_normed="0"
            traveltime="4.47" CO_perVeh="118.155531" CO2_perVeh="10229.318717" HC_perVeh="1.006279" PMx_perVeh="0.131822" NOx_perVeh="5.517174" fuel_perVeh="4.358654" electricity_perVeh="0"/>