<?xml version="1.0" encoding="UTF-8"?>

<!-- generated on 05/08/20 17:03:20 by Eclipse SUMO Version 1.5.0
<configuration xmlns:xsi="http://www.w3.org/2001/XMLSchema-instance" xsi:noNamespaceSchemaLocation="http://sumo.dlr.de/xsd/sumoConfiguration.xsd">

    <input>
        <net-file value="Netz_V12_T30.net.xml"/>
        <route-files value="routes_trucks_13.rou.xml,routes_cars_13.rou.xml"/>
        <additional-files value="osm.poly.xml,Actuated.add.xml,Output_T30/output.add.xml"/>
    </input>

    <output>
        <summary-output value="Output_T30/summary.xml"/>
        <tripinfo-output value="Output_T30/tripinfo.xml"/>
    </output>

    <time>
        <step-length value="0.5"/>
    </time>

    <processing>
        <ignore-route-errors value="true"/>
        <time-to-teleport value="120"/>
    </processing>

    <routing>
        <device.rerouting.adaptation-steps value="180"/>
    </routing>

    <report>
        <verbose value="true"/>
        <duration-log.statistics value="true"/>
        <no-step-log value="true"/>
    </report>

    <random_number>
        <seed value="102"/>
    </random_number>

    <gui_only>
        <gui-settings-file value="osm.view.xml"/>
        <tracker-interval value="0.5"/>
    </gui_only>

</configuration>
-->

<meandata xmlns:xsi="http://www.w3.org/2001/XMLSchema-instance" xsi:noNamespaceSchemaLocation="http://sumo.dlr.de/xsd/meandata_file.xsd">
    <interval begin="0.00" end="900.00" id="Det_Emission">
        <edge id="-15973619#7" sampledSeconds="0.00" CO_abs="0" CO2_abs="0" HC_abs="0" PMx_abs="0" NOx_abs="0" fuel_abs="0" electricity_abs="0"
            CO_normed="0" CO2_normed="0" HC_normed="0" PMx_normed="0" NOx_normed="0" fuel_normed="0" electricity_normed="0"/>
        <edge id="-22972469#2" sampledSeconds="11.75" CO_abs="12.712038" CO2_abs="14390.948751" HC_abs="0.667285" PMx_abs="0.178779" NOx_abs="12.526541" fuel_abs="5.930970" electricity_abs="0"
            CO_normed="0.929412" CO2_normed="1052.162219" HC_normed="0.048787" PMx_normed="0.013071" NOx_normed="0.915850" fuel_normed="0.433630" electricity_normed="0"
            traveltime="5.31" CO_perVeh="5.746782" CO2_perVeh="6505.774303" HC_perVeh="0.301662" PMx_perVeh="0.080821" NOx_perVeh="5.662924" fuel_perVeh="2.681237" electricity_perVeh="0"/>
        <edge id="-25042806#1" sampledSeconds="30.28" CO_abs="41.008878" CO2_abs="53684.228102" HC_abs="2.558801" PMx_abs="0.570149" NOx_abs="55.732226" fuel_abs="21.870756" electricity_abs="0"
            CO_normed="2.526344" CO2_normed="3307.206413" HC_normed="0.157634" PMx_normed="0.035124" NOx_normed="3.433373" fuel_normed="1.347344" electricity_normed="0"
            traveltime="3.52" CO_perVeh="4.771533" CO2_perVeh="6246.356768" HC_perVeh="0.297726" PMx_perVeh="0.066339" NOx_perVeh="6.484649" fuel_perVeh="2.544743" electricity_perVeh="0"/>
        <edge id="-25945760#0" sampledSeconds="11.01" CO_abs="112.644631" CO2_abs="21323.295985" HC_abs="2.136028" PMx_abs="0.370195" NOx_abs="20.915881" fuel_abs="8.780614" electricity_abs="0"
            CO_normed="10.818212" CO2_normed="2047.855557" HC_normed="0.205141" PMx_normed="0.035553" NOx_normed="2.008728" fuel_normed="0.843276" electricity_normed="0"
            traveltime="4.83" CO_perVeh="49.437817" CO2_perVeh="9358.432853" HC_perVeh="0.937466" PMx_perVeh="0.162472" NOx_perVeh="9.179625" fuel_perVeh="3.853663" electricity_perVeh="0"/>
        <edge id="-335462921#5" sampledSeconds="51.64" CO_abs="7216.933408" CO2_abs="367941.668146" HC_abs="71.976936" PMx_abs="6.207306" NOx_abs="645.632846" fuel_abs="153.319739" electricity_abs="0"
            CO_normed="409.936575" CO2_normed="20899.839145" HC_normed="4.088437" PMx_normed="0.352588" NOx_normed="36.673266" fuel_normed="8.708875" electricity_normed="0"
            traveltime="4.82" CO_perVeh="673.669738" CO2_perVeh="34345.774484" HC_perVeh="6.718738" PMx_perVeh="0.579425" NOx_perVeh="60.267053" fuel_perVeh="14.311739" electricity_perVeh="0"/>
        <edge id="-375311153#1" sampledSeconds="0.00" CO_abs="0" CO2_abs="0" HC_abs="0" PMx_abs="0" NOx_abs="0" fuel_abs="0" electricity_abs="0"
            CO_normed="0" CO2_normed="0" HC_normed="0" PMx_normed="0" NOx_normed="0" fuel_normed="0" electricity_normed="0"/>
        <edge id="-375311158#2" sampledSeconds="14.35" CO_abs="27.891379" CO2_abs="24424.944109" HC_abs="0.786486" PMx_abs="0.177756" NOx_abs="3.827688" fuel_abs="10.408763" electricity_abs="0"
            CO_normed="2.517272" CO2_normed="2204.417338" HC_normed="0.070982" PMx_normed="0.016043" NOx_normed="0.345459" fuel_normed="0.939419" electricity_normed="0"
            traveltime="4.34" CO_perVeh="8.440161" CO2_perVeh="7391.188877" HC_perVeh="0.237997" PMx_perVeh="0.053790" NOx_perVeh="1.158290" fuel_perVeh="3.149777" electricity_perVeh="0"/>
        <edge id="-4612403#0" sampledSeconds="0.00" CO_abs="0" CO2_abs="0" HC_abs="0" PMx_abs="0" NOx_abs="0" fuel_abs="0" electricity_abs="0"
            CO_normed="0" CO2_normed="0" HC_normed="0" PMx_normed="0" NOx_normed="0" fuel_normed="0" electricity_normed="0"/>
        <edge id="-505526660#2" sampledSeconds="31.02" CO_abs="10980.627562" CO2_abs="332338.158215" HC_abs="73.325424" PMx_abs="6.485407" NOx_abs="603.267107" fuel_abs="143.464114" electricity_abs="0"
            CO_normed="3502.592524" CO2_normed="106008.981887" HC_normed="23.389290" PMx_normed="2.068710" NOx_normed="192.429699" fuel_normed="45.762078" electricity_normed="0"
            traveltime="0.89" CO_perVeh="315.515753" CO2_perVeh="9549.356247" HC_perVeh="2.106922" PMx_perVeh="0.186351" NOx_perVeh="17.334189" fuel_perVeh="4.122277" electricity_perVeh="0"/>
        <edge id="-707107510#2" sampledSeconds="162.57" CO_abs="138.994013" CO2_abs="115106.363058" HC_abs="6.717367" PMx_abs="1.937468" NOx_abs="113.680076" fuel_abs="45.969163" electricity_abs="0"
            CO_normed="9.102424" CO2_normed="7538.072237" HC_normed="0.439906" PMx_normed="0.126881" NOx_normed="7.444668" fuel_normed="3.010423" electricity_normed="0"
            traveltime="18.83" CO_perVeh="16.102258" CO2_perVeh="13334.907548" HC_perVeh="0.778197" PMx_perVeh="0.224453" NOx_perVeh="13.169674" fuel_perVeh="5.325462" electricity_perVeh="0"/>
        <edge id="-71143837" sampledSeconds="64.90" CO_abs="126.467937" CO2_abs="128439.142801" HC_abs="4.706054" PMx_abs="1.093153" NOx_abs="63.529286" fuel_abs="53.829847" electricity_abs="0"
            CO_normed="8.937663" CO2_normed="9076.971223" HC_normed="0.332583" PMx_normed="0.077255" NOx_normed="4.489702" fuel_normed="3.804229" electricity_normed="0"
            traveltime="3.16" CO_perVeh="6.152200" CO2_perVeh="6248.092379" HC_perVeh="0.228932" PMx_perVeh="0.053178" NOx_perVeh="3.090466" fuel_perVeh="2.618624" electricity_perVeh="0"/>
        <edge id="-81113584#2" sampledSeconds="22.10" CO_abs="4883.016988" CO2_abs="232148.559184" HC_abs="47.265096" PMx_abs="3.799144" NOx_abs="681.078285" fuel_abs="95.320673" electricity_abs="0"
            CO_normed="570.279356" CO2_normed="27112.240489" HC_normed="5.520011" PMx_normed="0.443696" NOx_normed="79.541989" fuel_normed="11.132341" electricity_normed="0"
            traveltime="2.42" CO_perVeh="535.007460" CO2_perVeh="25435.342777" HC_perVeh="5.178597" PMx_perVeh="0.416253" NOx_perVeh="74.622301" fuel_perVeh="10.443804" electricity_perVeh="0"/>
        <edge id="108488061#1" sampledSeconds="242.54" CO_abs="492.897343" CO2_abs="486495.155836" HC_abs="17.204731" PMx_abs="4.063435" NOx_abs="209.208710" fuel_abs="204.593608" electricity_abs="0"
            CO_normed="10.734412" CO2_normed="10594.983521" HC_normed="0.374688" PMx_normed="0.088494" NOx_normed="4.556187" fuel_normed="4.455678" electricity_normed="0"
            traveltime="10.20" CO_perVeh="20.719911" CO2_perVeh="20450.782332" HC_perVeh="0.723235" PMx_perVeh="0.170814" NOx_perVeh="8.794500" fuel_perVeh="8.600495" electricity_perVeh="0"/>
        <edge id="120359703" sampledSeconds="179.78" CO_abs="286.647853" CO2_abs="320235.467767" HC_abs="15.060383" PMx_abs="2.977819" NOx_abs="298.643978" fuel_abs="132.553489" electricity_abs="0"
            CO_normed="21.744575" CO2_normed="24292.468634" HC_normed="1.142453" PMx_normed="0.225892" NOx_normed="22.654578" fuel_normed="10.055262" electricity_normed="0"
            traveltime="3.01" CO_perVeh="4.804129" CO2_perVeh="5367.046517" HC_perVeh="0.252407" PMx_perVeh="0.049907" NOx_perVeh="5.005180" fuel_perVeh="2.221555" electricity_perVeh="0"/>
        <edge id="15973619#7" sampledSeconds="0.00" CO_abs="0" CO2_abs="0" HC_abs="0" PMx_abs="0" NOx_abs="0" fuel_abs="0" electricity_abs="0"
            CO_normed="0" CO2_normed="0" HC_normed="0" PMx_normed="0" NOx_normed="0" fuel_normed="0" electricity_normed="0"/>
        <edge id="199847241#0" sampledSeconds="4.27" CO_abs="187.418310" CO2_abs="29798.813503" HC_abs="5.183312" PMx_abs="0.409210" NOx_abs="91.621750" fuel_abs="11.766719" electricity_abs="0"
            CO_normed="167.337777" CO2_normed="26606.083485" HC_normed="4.627958" PMx_normed="0.365366" NOx_normed="81.805134" fuel_normed="10.505999" electricity_normed="0"
            traveltime="0.26" CO_perVeh="11.279339" CO2_perVeh="1793.372978" HC_perVeh="0.311946" PMx_perVeh="0.024627" NOx_perVeh="5.514044" fuel_perVeh="0.708153" electricity_perVeh="0"/>
        <edge id="199847241#1" sampledSeconds="9.92" CO_abs="59.654743" CO2_abs="51333.462268" HC_abs="8.111595" PMx_abs="0.583159" NOx_abs="155.206918" fuel_abs="19.939993" electricity_abs="0"
            CO_normed="13.674440" CO2_normed="11766.982755" HC_normed="1.859391" PMx_normed="0.133675" NOx_normed="35.577517" fuel_normed="4.570772" electricity_normed="0"
            traveltime="0.97" CO_perVeh="5.841612" CO2_perVeh="5026.761597" HC_perVeh="0.794317" PMx_perVeh="0.057105" NOx_perVeh="15.198433" fuel_perVeh="1.952597" electricity_perVeh="0"/>
        <edge id="199847244#1" sampledSeconds="5.06" CO_abs="6.403298" CO2_abs="7924.145133" HC_abs="0.363318" PMx_abs="0.082580" NOx_abs="7.374670" fuel_abs="3.247834" electricity_abs="0"
            CO_normed="2.015200" CO2_normed="2493.830097" HC_normed="0.114341" PMx_normed="0.025989" NOx_normed="2.320903" fuel_normed="1.022135" electricity_normed="0"
            traveltime="0.73" CO_perVeh="0.918059" CO2_perVeh="1136.106990" HC_perVeh="0.052090" PMx_perVeh="0.011840" NOx_perVeh="1.057327" fuel_perVeh="0.465651" electricity_perVeh="0"/>
        <edge id="199847244#3" sampledSeconds="7.72" CO_abs="4.709036" CO2_abs="5377.894937" HC_abs="0.471755" PMx_abs="0.054956" NOx_abs="7.013603" fuel_abs="2.176299" electricity_abs="0"
            CO_normed="1.036091" CO2_normed="1183.255212" HC_normed="0.103796" PMx_normed="0.012091" NOx_normed="1.543147" fuel_normed="0.478834" electricity_normed="0"
            traveltime="1.21" CO_perVeh="0.738020" CO2_perVeh="842.845948" HC_perVeh="0.073935" PMx_perVeh="0.008613" NOx_perVeh="1.099201" fuel_perVeh="0.341079" electricity_perVeh="0"/>
        <edge id="199847247#0" sampledSeconds="9.40" CO_abs="3335.963301" CO2_abs="99710.308966" HC_abs="22.583281" PMx_abs="1.876462" NOx_abs="199.755690" fuel_abs="42.827827" electricity_abs="0"
            CO_normed="824.712806" CO2_normed="24650.261796" HC_normed="5.583011" PMx_normed="0.463897" NOx_normed="49.383360" fuel_normed="10.587843" electricity_normed="0"
            traveltime="0.91" CO_perVeh="321.208559" CO2_perVeh="9600.766479" HC_perVeh="2.174467" PMx_perVeh="0.180678" NOx_perVeh="19.233796" fuel_perVeh="4.123746" electricity_perVeh="0"/>
        <edge id="199847247#1" sampledSeconds="167.03" CO_abs="577.938448" CO2_abs="122822.145739" HC_abs="9.791421" PMx_abs="1.816026" NOx_abs="118.814827" fuel_abs="50.123775" electricity_abs="0"
            CO_normed="38.853005" CO2_normed="8256.950974" HC_normed="0.658247" PMx_normed="0.122086" NOx_normed="7.987551" fuel_normed="3.369666" electricity_normed="0"
            traveltime="19.31" CO_perVeh="66.823431" CO2_perVeh="14201.161429" HC_perVeh="1.132121" PMx_perVeh="0.209976" NOx_perVeh="13.737820" fuel_perVeh="5.795501" electricity_perVeh="0"/>
        <edge id="199847252#1" sampledSeconds="28.20" CO_abs="1388.072657" CO2_abs="168340.557380" HC_abs="24.984388" PMx_abs="2.481402" NOx_abs="198.940744" fuel_abs="69.300185" electricity_abs="0"
            CO_normed="93.347186" CO2_normed="11320.817578" HC_normed="1.680188" PMx_normed="0.166873" NOx_normed="13.378665" fuel_normed="4.660402" electricity_normed="0"
            traveltime="4.31" CO_perVeh="212.199449" CO2_perVeh="25734.800948" HC_perVeh="3.819450" PMx_perVeh="0.379340" NOx_perVeh="30.412757" fuel_perVeh="10.594158" electricity_perVeh="0"/>
        <edge id="199847252#2" sampledSeconds="7.48" CO_abs="243.507434" CO2_abs="47762.167613" HC_abs="7.740128" PMx_abs="0.785779" NOx_abs="80.618987" fuel_abs="19.393084" electricity_abs="0"
            CO_normed="61.803917" CO2_normed="12122.377567" HC_normed="1.964500" PMx_normed="0.199436" NOx_normed="20.461672" fuel_normed="4.922103" electricity_normed="0"
            traveltime="0.93" CO_perVeh="30.275143" CO2_perVeh="5938.243622" HC_perVeh="0.962326" PMx_perVeh="0.097695" NOx_perVeh="10.023314" fuel_perVeh="2.411131" electricity_perVeh="0"/>
        <edge id="22972469#0" sampledSeconds="10.14" CO_abs="309.214723" CO2_abs="28601.125285" HC_abs="3.009199" PMx_abs="0.433441" NOx_abs="4.293764" fuel_abs="12.376122" electricity_abs="0"
            CO_normed="22.607547" CO2_normed="2091.107679" HC_normed="0.220011" PMx_normed="0.031690" NOx_normed="0.313929" fuel_normed="0.904853" electricity_normed="0"
            traveltime="4.69" CO_perVeh="142.857097" CO2_perVeh="13213.710221" HC_perVeh="1.390249" PMx_perVeh="0.200249" NOx_perVeh="1.983717" fuel_perVeh="5.717764" electricity_perVeh="0"/>
        <edge id="24214231#0" sampledSeconds="51.79" CO_abs="126.114398" CO2_abs="104119.827297" HC_abs="3.874173" PMx_abs="0.902205" NOx_abs="43.900198" fuel_abs="43.816986" electricity_abs="0"
            CO_normed="14.763172" CO2_normed="12188.449201" HC_normed="0.453518" PMx_normed="0.105614" NOx_normed="5.139034" fuel_normed="5.129293" electricity_normed="0"
            traveltime="1.90" CO_perVeh="4.630301" CO2_perVeh="3822.768834" HC_perVeh="0.142241" PMx_perVeh="0.033125" NOx_perVeh="1.611800" fuel_perVeh="1.608745" electricity_perVeh="0"/>
        <edge id="25042806#1" sampledSeconds="11.37" CO_abs="19.561621" CO2_abs="21839.354930" HC_abs="0.892435" PMx_abs="0.200869" NOx_abs="15.432263" fuel_abs="9.051766" electricity_abs="0"
            CO_normed="1.205090" CO2_normed="1345.409206" HC_normed="0.054978" PMx_normed="0.012375" NOx_normed="0.950702" fuel_normed="0.557632" electricity_normed="0"
            traveltime="3.54" CO_perVeh="6.097921" CO2_perVeh="6807.956770" HC_perVeh="0.278198" PMx_perVeh="0.062617" NOx_perVeh="4.810681" fuel_perVeh="2.821696" electricity_perVeh="0"/>
        <edge id="25945760#0" sampledSeconds="52.44" CO_abs="576.588245" CO2_abs="109625.134042" HC_abs="10.756954" PMx_abs="1.577166" NOx_abs="109.804746" fuel_abs="45.389042" electricity_abs="0"
            CO_normed="55.374621" CO2_normed="10528.224158" HC_normed="1.033081" PMx_normed="0.151469" NOx_normed="10.545474" fuel_normed="4.359092" electricity_normed="0"
            traveltime="3.93" CO_perVeh="43.161533" CO2_perVeh="8206.183364" HC_perVeh="0.805231" PMx_perVeh="0.118062" NOx_perVeh="8.219629" fuel_perVeh="3.397677" electricity_perVeh="0"/>
        <edge id="335462921#3" sampledSeconds="130.33" CO_abs="141.056566" CO2_abs="87480.811330" HC_abs="3.515207" PMx_abs="1.076729" NOx_abs="36.663417" fuel_abs="36.423859" electricity_abs="0"
            CO_normed="8.022555" CO2_normed="4975.447822" HC_normed="0.199926" PMx_normed="0.061239" NOx_normed="2.085222" fuel_normed="2.071597" electricity_normed="0"
            traveltime="20.30" CO_perVeh="21.968440" CO2_perVeh="13624.441873" HC_perVeh="0.547466" PMx_perVeh="0.167692" NOx_perVeh="5.710036" fuel_perVeh="5.672727" electricity_perVeh="0"/>
        <edge id="375311153#1" sampledSeconds="0.00" CO_abs="0" CO2_abs="0" HC_abs="0" PMx_abs="0" NOx_abs="0" fuel_abs="0" electricity_abs="0"
            CO_normed="0" CO2_normed="0" HC_normed="0" PMx_normed="0" NOx_normed="0" fuel_normed="0" electricity_normed="0"/>
        <edge id="375311158#1" sampledSeconds="76.77" CO_abs="148.858441" CO2_abs="62047.569572" HC_abs="3.182168" PMx_abs="0.774724" NOx_abs="28.679414" fuel_abs="25.949481" electricity_abs="0"
            CO_normed="13.434877" CO2_normed="5599.961153" HC_normed="0.287199" PMx_normed="0.069921" NOx_normed="2.588395" fuel_normed="2.342011" electricity_normed="0"
            traveltime="17.19" CO_perVeh="33.340439" CO2_perVeh="13897.050149" HC_perVeh="0.712723" PMx_perVeh="0.173518" NOx_perVeh="6.423447" fuel_perVeh="5.812012" electricity_perVeh="0"/>
        <edge id="42747981#3" sampledSeconds="201.49" CO_abs="395.437183" CO2_abs="399717.208211" HC_abs="14.653788" PMx_abs="3.402369" NOx_abs="196.552979" fuel_abs="167.547817" electricity_abs="0"
            CO_normed="8.528327" CO2_normed="8620.633164" HC_normed="0.316036" PMx_normed="0.073378" NOx_normed="4.239025" fuel_normed="3.613475" electricity_normed="0"
            traveltime="10.35" CO_perVeh="20.304852" CO2_perVeh="20524.622057" HC_perVeh="0.752441" PMx_perVeh="0.174704" NOx_perVeh="10.092574" fuel_perVeh="8.603221" electricity_perVeh="0"/>
        <edge id="4611722#0" sampledSeconds="42.65" CO_abs="21.789706" CO2_abs="23833.345076" HC_abs="1.002772" PMx_abs="0.214113" NOx_abs="18.090074" fuel_abs="9.897616" electricity_abs="0"
            CO_normed="13.512996" CO2_normed="14780.369040" HC_normed="0.621874" PMx_normed="0.132783" NOx_normed="11.218650" fuel_normed="6.138057" electricity_normed="0"
            traveltime="0.45" CO_perVeh="0.230384" CO2_perVeh="251.991067" HC_perVeh="0.010602" PMx_perVeh="0.002264" NOx_perVeh="0.191267" fuel_perVeh="0.104648" electricity_perVeh="0"/>
        <edge id="4612403#0" sampledSeconds="0.00" CO_abs="0" CO2_abs="0" HC_abs="0" PMx_abs="0" NOx_abs="0" fuel_abs="0" electricity_abs="0"
            CO_normed="0" CO2_normed="0" HC_normed="0" PMx_normed="0" NOx_normed="0" fuel_normed="0" electricity_normed="0"/>
        <edge id="4773464#0" sampledSeconds="170.23" CO_abs="43296.669351" CO2_abs="1465108.914560" HC_abs="306.325757" PMx_abs="27.254263" NOx_abs="2575.943388" fuel_abs="628.110393" electricity_abs="0"
            CO_normed="2808.280808" CO2_normed="95028.955055" HC_normed="19.868705" PMx_normed="1.767749" NOx_normed="167.079188" fuel_normed="40.740094" electricity_normed="0"
            traveltime="3.95" CO_perVeh="1004.856841" CO2_perVeh="34003.186347" HC_perVeh="7.109404" PMx_perVeh="0.632534" NOx_perVeh="59.784144" fuel_perVeh="14.577588" electricity_perVeh="0"/>
        <edge id="505526660#0" sampledSeconds="712.20" CO_abs="1026.783225" CO2_abs="468894.932986" HC_abs="32.812452" PMx_abs="8.083530" NOx_abs="415.764657" fuel_abs="189.176988" electricity_abs="0"
            CO_normed="328.045759" CO2_normed="149806.687855" HC_normed="10.483212" PMx_normed="2.582597" NOx_normed="132.832159" fuel_normed="60.439932" electricity_normed="0"
            traveltime="15.27" CO_perVeh="22.017069" CO2_perVeh="10054.402550" HC_perVeh="0.703590" PMx_perVeh="0.173333" NOx_perVeh="8.915143" fuel_perVeh="4.056477" electricity_perVeh="0"/>
        <edge id="66071390#2" sampledSeconds="41.08" CO_abs="79.972552" CO2_abs="81276.413351" HC_abs="2.980739" PMx_abs="0.692244" NOx_abs="40.336351" fuel_abs="34.060672" electricity_abs="0"
            CO_normed="9.372699" CO2_normed="9525.509915" HC_normed="0.349339" PMx_normed="0.081130" NOx_normed="4.727378" fuel_normed="3.991875" electricity_normed="0"
            traveltime="1.90" CO_perVeh="3.705640" CO2_perVeh="3766.056163" HC_perVeh="0.138117" PMx_perVeh="0.032076" NOx_perVeh="1.869041" fuel_perVeh="1.578249" electricity_perVeh="0"/>
        <edge id="707107510#0" sampledSeconds="11.62" CO_abs="1279.407897" CO2_abs="84279.821490" HC_abs="13.795000" PMx_abs="1.253981" NOx_abs="274.162359" fuel_abs="34.444614" electricity_abs="0"
            CO_normed="83.758291" CO2_normed="5517.500589" HC_normed="0.903110" PMx_normed="0.082094" NOx_normed="17.948436" fuel_normed="2.254967" electricity_normed="0"
            traveltime="3.61" CO_perVeh="397.214545" CO2_perVeh="26166.143765" HC_perVeh="4.282899" PMx_perVeh="0.389320" NOx_perVeh="85.118497" fuel_perVeh="10.693932" electricity_perVeh="0"/>
        <edge id="71143837" sampledSeconds="81.74" CO_abs="173.544681" CO2_abs="164380.532917" HC_abs="5.850944" PMx_abs="1.378956" NOx_abs="69.266335" fuel_abs="69.163827" electricity_abs="0"
            CO_normed="12.266809" CO2_normed="11619.051629" HC_normed="0.413567" PMx_normed="0.097470" NOx_normed="4.896012" fuel_normed="4.888767" electricity_normed="0"
            traveltime="3.15" CO_perVeh="6.686520" CO2_perVeh="6333.433888" HC_perVeh="0.225432" PMx_perVeh="0.053130" NOx_perVeh="2.668770" fuel_perVeh="2.664820" electricity_perVeh="0"/>
        <edge id="81113584#0" sampledSeconds="89.15" CO_abs="1545.296607" CO2_abs="97271.182503" HC_abs="12.558700" PMx_abs="1.674798" NOx_abs="106.345788" fuel_abs="40.579237" electricity_abs="0"
            CO_normed="179.216771" CO2_normed="11281.088142" HC_normed="1.456503" PMx_normed="0.194236" NOx_normed="12.333521" fuel_normed="4.706203" electricity_normed="0"
            traveltime="15.56" CO_perVeh="269.791344" CO2_perVeh="16982.450441" HC_perVeh="2.192607" PMx_perVeh="0.292401" NOx_perVeh="18.566774" fuel_perVeh="7.084677" electricity_perVeh="0"/>
        <edge id="KP12_1" sampledSeconds="506.38" CO_abs="1046.151772" CO2_abs="719215.937525" HC_abs="38.509664" PMx_abs="8.212834" NOx_abs="583.063742" fuel_abs="298.029770" electricity_abs="0"
            CO_normed="30.231232" CO2_normed="20783.584382" HC_normed="1.112835" PMx_normed="0.237331" NOx_normed="16.849118" fuel_normed="8.612333" electricity_normed="0"
            traveltime="12.87" CO_perVeh="26.590739" CO2_perVeh="18280.792150" HC_perVeh="0.978826" PMx_perVeh="0.208751" NOx_perVeh="14.820121" fuel_perVeh="7.575222" electricity_perVeh="0"/>
        <edge id="KP12_2" sampledSeconds="486.09" CO_abs="1082.845808" CO2_abs="468465.298816" HC_abs="31.857329" PMx_abs="6.697596" NOx_abs="378.911336" fuel_abs="192.310443" electricity_abs="0"
            CO_normed="108.692177" CO2_normed="47022.865628" HC_normed="3.197724" PMx_normed="0.672281" NOx_normed="38.033760" fuel_normed="19.303432" electricity_normed="0"
            traveltime="11.44" CO_perVeh="25.486625" CO2_perVeh="11026.130859" HC_perVeh="0.749817" PMx_perVeh="0.157639" NOx_perVeh="8.918325" fuel_perVeh="4.526355" electricity_perVeh="0"/>
        <edge id="KP21_1" sampledSeconds="154.27" CO_abs="722.574176" CO2_abs="267781.191430" HC_abs="18.226374" PMx_abs="3.135535" NOx_abs="207.720915" fuel_abs="111.094382" electricity_abs="0"
            CO_normed="72.675301" CO2_normed="26932.983800" HC_normed="1.833178" PMx_normed="0.315367" NOx_normed="20.892222" fuel_normed="11.173687" electricity_normed="0"
            traveltime="3.73" CO_perVeh="17.473349" CO2_perVeh="6475.507075" HC_perVeh="0.440752" PMx_perVeh="0.075824" NOx_perVeh="5.023124" fuel_perVeh="2.686494" electricity_perVeh="0"/>
        <edge id="KP21_2" sampledSeconds="997.93" CO_abs="2006.040561" CO2_abs="998976.464932" HC_abs="53.787550" PMx_abs="12.682896" NOx_abs="667.184664" fuel_abs="413.882725" electricity_abs="0"
            CO_normed="57.982240" CO2_normed="28874.238455" HC_normed="1.554666" PMx_normed="0.366584" NOx_normed="19.284187" fuel_normed="11.962793" electricity_normed="0"
            traveltime="26.12" CO_perVeh="52.507253" CO2_perVeh="26147.781315" HC_perVeh="1.407866" PMx_perVeh="0.331969" NOx_perVeh="17.463273" fuel_perVeh="10.833203" electricity_perVeh="0"/>
        <edge id="KP23_1" sampledSeconds="388.49" CO_abs="540.648491" CO2_abs="546394.451448" HC_abs="26.568330" PMx_abs="6.037929" NOx_abs="411.945761" fuel_abs="226.474222" electricity_abs="0"
            CO_normed="20.502408" CO2_normed="20720.305326" HC_normed="1.007521" PMx_normed="0.228970" NOx_normed="15.621758" fuel_normed="8.588328" electricity_normed="0"
            traveltime="9.79" CO_perVeh="13.620028" CO2_perVeh="13764.780546" HC_perVeh="0.669310" PMx_perVeh="0.152108" NOx_perVeh="10.377746" fuel_perVeh="5.705343" electricity_perVeh="0"/>
        <edge id="KP23_2" sampledSeconds="780.01" CO_abs="1108.366992" CO2_abs="535267.053950" HC_abs="32.196758" PMx_abs="7.901589" NOx_abs="383.644326" fuel_abs="219.667381" electricity_abs="0"
            CO_normed="137.131703" CO2_normed="66225.431977" HC_normed="3.983515" PMx_normed="0.977617" NOx_normed="47.466047" fuel_normed="27.178148" electricity_normed="0"
            traveltime="18.06" CO_perVeh="25.662486" CO2_perVeh="12393.262845" HC_perVeh="0.745465" PMx_perVeh="0.182949" NOx_perVeh="8.882678" fuel_perVeh="5.086051" electricity_perVeh="0"/>
        <edge id="KP32_1" sampledSeconds="119.45" CO_abs="694.689711" CO2_abs="224261.242721" HC_abs="17.333867" PMx_abs="2.615696" NOx_abs="196.969576" fuel_abs="92.976140" electricity_abs="0"
            CO_normed="85.579268" CO2_normed="27626.885460" HC_normed="2.135370" PMx_normed="0.322229" NOx_normed="24.264808" fuel_normed="11.453790" electricity_normed="0"
            traveltime="3.07" CO_perVeh="17.834386" CO2_perVeh="5757.335308" HC_perVeh="0.445003" PMx_perVeh="0.067151" NOx_perVeh="5.056691" fuel_perVeh="2.386925" electricity_perVeh="0"/>
        <edge id="KP32_2" sampledSeconds="863.22" CO_abs="1698.057710" CO2_abs="820652.841551" HC_abs="46.868646" PMx_abs="10.472191" NOx_abs="540.595390" fuel_abs="340.457386" electricity_abs="0"
            CO_normed="64.387438" CO2_normed="31117.749229" HC_normed="1.777179" PMx_normed="0.397088" NOx_normed="20.498451" fuel_normed="12.909561" electricity_normed="0"
            traveltime="24.30" CO_perVeh="47.799872" CO2_perVeh="23101.158720" HC_perVeh="1.319340" PMx_perVeh="0.294789" NOx_perVeh="15.217616" fuel_perVeh="9.583785" electricity_perVeh="0"/>
        <edge id="KP34_1" sampledSeconds="194.62" CO_abs="933.543619" CO2_abs="338988.778867" HC_abs="24.685807" PMx_abs="4.215794" NOx_abs="310.723877" fuel_abs="140.550054" electricity_abs="0"
            CO_normed="72.325673" CO2_normed="26262.930766" HC_normed="1.912517" PMx_normed="0.326616" NOx_normed="24.073126" fuel_normed="10.889022" electricity_normed="0"
            traveltime="4.83" CO_perVeh="23.150156" CO2_perVeh="8406.295192" HC_perVeh="0.612162" PMx_perVeh="0.104544" NOx_perVeh="7.705378" fuel_perVeh="3.485382" electricity_perVeh="0"/>
        <edge id="KP34_2" sampledSeconds="507.06" CO_abs="1008.065675" CO2_abs="504125.616173" HC_abs="32.976478" PMx_abs="6.709523" NOx_abs="390.792728" fuel_abs="207.685228" electricity_abs="0"
            CO_normed="78.479227" CO2_normed="39246.836604" HC_normed="2.567262" PMx_normed="0.522345" NOx_normed="30.423723" fuel_normed="16.168566" electricity_normed="0"
            traveltime="12.57" CO_perVeh="24.988139" CO2_perVeh="12496.369169" HC_perVeh="0.817428" PMx_perVeh="0.166317" NOx_perVeh="9.687050" fuel_perVeh="5.148144" electricity_perVeh="0"/>
        <edge id="KP43_1" sampledSeconds="200.88" CO_abs="313.432828" CO2_abs="304795.712694" HC_abs="14.863129" PMx_abs="3.147292" NOx_abs="214.918906" fuel_abs="126.561270" electricity_abs="0"
            CO_normed="24.382173" CO2_normed="23710.284924" HC_normed="1.156214" PMx_normed="0.244830" NOx_normed="16.718701" fuel_normed="9.845295" electricity_normed="0"
            traveltime="4.85" CO_perVeh="7.569450" CO2_perVeh="7360.862400" HC_perVeh="0.358947" PMx_perVeh="0.076008" NOx_perVeh="5.190324" fuel_perVeh="3.056474" electricity_perVeh="0"/>
        <edge id="KP43_2" sampledSeconds="671.34" CO_abs="1015.960238" CO2_abs="558781.936758" HC_abs="32.171033" PMx_abs="7.638718" NOx_abs="394.572798" fuel_abs="229.864980" electricity_abs="0"
            CO_normed="78.619481" CO2_normed="43241.008842" HC_normed="2.489536" PMx_normed="0.591118" NOx_normed="30.533782" fuel_normed="17.787965" electricity_normed="0"
            traveltime="16.65" CO_perVeh="25.201228" CO2_perVeh="13860.769773" HC_perVeh="0.798013" PMx_perVeh="0.189481" NOx_perVeh="9.787508" fuel_perVeh="5.701876" electricity_perVeh="0"/>
        <edge id="KP45_1" sampledSeconds="61.27" CO_abs="81.410779" CO2_abs="87492.092710" HC_abs="5.042705" PMx_abs="0.982815" NOx_abs="80.153703" fuel_abs="35.977201" electricity_abs="0"
            CO_normed="27.091773" CO2_normed="29115.505062" HC_normed="1.678105" PMx_normed="0.327060" NOx_normed="26.673445" fuel_normed="11.972446" electricity_normed="0"
            traveltime="1.13" CO_perVeh="1.500671" CO2_perVeh="1612.769836" HC_perVeh="0.092954" PMx_perVeh="0.018117" NOx_perVeh="1.477499" fuel_perVeh="0.663179" electricity_perVeh="0"/>
        <edge id="KP45_2" sampledSeconds="638.82" CO_abs="1117.364593" CO2_abs="648370.738237" HC_abs="44.062731" PMx_abs="8.626250" NOx_abs="597.335337" fuel_abs="265.405405" electricity_abs="0"
            CO_normed="65.467385" CO2_normed="37988.618031" HC_normed="2.581675" PMx_normed="0.505420" NOx_normed="34.998408" fuel_normed="15.550339" electricity_normed="0"
            traveltime="15.33" CO_perVeh="26.820645" CO2_perVeh="15563.157979" HC_perVeh="1.057659" PMx_perVeh="0.207060" NOx_perVeh="14.338130" fuel_perVeh="6.370655" electricity_perVeh="0"/>
        <edge id="KP54_1" sampledSeconds="250.07" CO_abs="583.067623" CO2_abs="384372.557154" HC_abs="19.485539" PMx_abs="4.077271" NOx_abs="252.100666" fuel_abs="160.189065" electricity_abs="0"
            CO_normed="38.096545" CO2_normed="25114.182107" HC_normed="1.273149" PMx_normed="0.266401" NOx_normed="16.471785" fuel_normed="10.466453" electricity_normed="0"
            traveltime="5.81" CO_perVeh="13.538421" CO2_perVeh="8924.860786" HC_perVeh="0.452441" PMx_perVeh="0.094671" NOx_perVeh="5.853600" fuel_perVeh="3.719478" electricity_perVeh="0"/>