<?xml version="1.0" encoding="UTF-8"?>

<!-- generated on 04/16/20 12:50:01 by Eclipse SUMO Version 1.5.0
<configuration xmlns:xsi="http://www.w3.org/2001/XMLSchema-instance" xsi:noNamespaceSchemaLocation="http://sumo.dlr.de/xsd/sumoConfiguration.xsd">

    <input>
        <net-file value="Netz_V12_T40.net.xml"/>
        <route-files value="routes_trucks_13.rou.xml,routes_cars_13.rou.xml"/>
        <additional-files value="WAUT_T40.add.xml,Output_T40/output.add.xml"/>
    </input>

    <output>
        <summary-output value="Output_T40/summary.xml"/>
        <tripinfo-output value="Output_T40/tripinfo.xml"/>
    </output>

    <time>
        <step-length value="0.5"/>
    </time>

    <processing>
        <ignore-route-errors value="true"/>
        <time-to-teleport value="120"/>
    </processing>

    <routing>
        <device.rerouting.adaptation-steps value="180"/>
    </routing>

    <report>
        <verbose value="true"/>
        <duration-log.statistics value="true"/>
        <no-step-log value="true"/>
    </report>

    <random_number>
        <seed value="104"/>
    </random_number>

    <gui_only>
        <gui-settings-file value="osm.view.xml"/>
        <tracker-interval value="0.5"/>
    </gui_only>

</configuration>
-->

<meandata xmlns:xsi="http://www.w3.org/2001/XMLSchema-instance" xsi:noNamespaceSchemaLocation="http://sumo.dlr.de/xsd/meandata_file.xsd">
    <interval begin="0.00" end="900.00" id="Det_Emission">
        <edge id="-15973619#7" sampledSeconds="0.00" CO_abs="0" CO2_abs="0" HC_abs="0" PMx_abs="0" NOx_abs="0" fuel_abs="0" electricity_abs="0"
            CO_normed="0" CO2_normed="0" HC_normed="0" PMx_normed="0" NOx_normed="0" fuel_normed="0" electricity_normed="0"/>
        <edge id="-22972469#2" sampledSeconds="25.04" CO_abs="31.820668" CO2_abs="30179.139772" HC_abs="1.488987" PMx_abs="0.357333" NOx_abs="26.675417" fuel_abs="12.358019" electricity_abs="0"
            CO_normed="2.326497" CO2_normed="2206.480700" HC_normed="0.108864" PMx_normed="0.026126" NOx_normed="1.950314" fuel_normed="0.903529" electricity_normed="0"
            traveltime="11.32" CO_perVeh="14.385298" CO2_perVeh="13643.205561" HC_perVeh="0.673133" PMx_perVeh="0.161541" NOx_perVeh="12.059263" fuel_perVeh="5.586739" electricity_perVeh="0"/>
        <edge id="-25042806#1" sampledSeconds="31.24" CO_abs="57.557921" CO2_abs="59592.419439" HC_abs="2.269066" PMx_abs="0.538863" NOx_abs="33.143217" fuel_abs="24.905833" electricity_abs="0"
            CO_normed="3.545845" CO2_normed="3671.179389" HC_normed="0.139785" PMx_normed="0.033197" NOx_normed="2.041781" fuel_normed="1.534319" electricity_normed="0"
            traveltime="3.64" CO_perVeh="6.697075" CO2_perVeh="6933.796492" HC_perVeh="0.264014" PMx_perVeh="0.062699" NOx_perVeh="3.856335" fuel_perVeh="2.897885" electricity_perVeh="0"/>
        <edge id="-25945760#0" sampledSeconds="10.56" CO_abs="9.092837" CO2_abs="17722.736336" HC_abs="2.718246" PMx_abs="0.249016" NOx_abs="55.421014" fuel_abs="6.714867" electricity_abs="0"
            CO_normed="0.873262" CO2_normed="1702.063514" HC_normed="0.261056" PMx_normed="0.023915" NOx_normed="5.322546" fuel_normed="0.644885" electricity_normed="0"
            traveltime="4.64" CO_perVeh="3.990692" CO2_perVeh="7778.208308" HC_perVeh="1.192992" PMx_perVeh="0.109289" NOx_perVeh="24.323343" fuel_perVeh="2.947041" electricity_perVeh="0"/>
        <edge id="-335462921#5" sampledSeconds="51.61" CO_abs="8247.127455" CO2_abs="302123.524564" HC_abs="57.162049" PMx_abs="5.570719" NOx_abs="316.037147" fuel_abs="130.653109" electricity_abs="0"
            CO_normed="468.453704" CO2_normed="17161.234000" HC_normed="3.246921" PMx_normed="0.316428" NOx_normed="17.951556" fuel_normed="7.421364" electricity_normed="0"
            traveltime="4.38" CO_perVeh="700.287845" CO2_perVeh="25654.196932" HC_perVeh="4.853798" PMx_perVeh="0.473026" NOx_perVeh="26.835644" fuel_perVeh="11.094140" electricity_perVeh="0"/>
        <edge id="-375311153#1" sampledSeconds="0.00" CO_abs="0" CO2_abs="0" HC_abs="0" PMx_abs="0" NOx_abs="0" fuel_abs="0" electricity_abs="0"
            CO_normed="0" CO2_normed="0" HC_normed="0" PMx_normed="0" NOx_normed="0" fuel_normed="0" electricity_normed="0"/>
        <edge id="-375311158#2" sampledSeconds="13.05" CO_abs="18.094533" CO2_abs="18159.982667" HC_abs="0.718925" PMx_abs="0.178930" NOx_abs="9.854248" fuel_abs="7.599868" electricity_abs="0"
            CO_normed="1.633081" CO2_normed="1638.987605" HC_normed="0.064885" PMx_normed="0.016149" NOx_normed="0.889373" fuel_normed="0.685909" electricity_normed="0"
            traveltime="3.95" CO_perVeh="5.475555" CO2_perVeh="5495.360042" HC_perVeh="0.217553" PMx_perVeh="0.054146" NOx_perVeh="2.981976" fuel_perVeh="2.299783" electricity_perVeh="0"/>
        <edge id="-4612403#0" sampledSeconds="0.00" CO_abs="0" CO2_abs="0" HC_abs="0" PMx_abs="0" NOx_abs="0" fuel_abs="0" electricity_abs="0"
            CO_normed="0" CO2_normed="0" HC_normed="0" PMx_normed="0" NOx_normed="0" fuel_normed="0" electricity_normed="0"/>
        <edge id="-505526660#2" sampledSeconds="35.83" CO_abs="1877.917306" CO2_abs="99200.843349" HC_abs="13.475198" PMx_abs="1.450464" NOx_abs="117.483931" fuel_abs="42.295221" electricity_abs="0"
            CO_normed="599.016684" CO2_normed="31643.012233" HC_normed="4.298309" PMx_normed="0.462668" NOx_normed="37.474938" fuel_normed="13.491298" electricity_normed="0"
            traveltime="0.90" CO_perVeh="46.914262" CO2_perVeh="2478.242441" HC_perVeh="0.336638" PMx_perVeh="0.036236" NOx_perVeh="2.934992" fuel_perVeh="1.056622" electricity_perVeh="0"/>
        <edge id="-707107510#2" sampledSeconds="242.31" CO_abs="812.552383" CO2_abs="128602.970326" HC_abs="8.600831" PMx_abs="1.711414" NOx_abs="57.691889" fuel_abs="54.032894" electricity_abs="0"
            CO_normed="53.212337" CO2_normed="8421.936498" HC_normed="0.563250" PMx_normed="0.112077" NOx_normed="3.778120" fuel_normed="3.538500" electricity_normed="0"
            traveltime="28.16" CO_perVeh="94.419744" CO2_perVeh="14943.848207" HC_perVeh="0.999429" PMx_perVeh="0.198869" NOx_perVeh="6.703880" fuel_perVeh="6.278699" electricity_perVeh="0"/>
        <edge id="-71143837" sampledSeconds="63.23" CO_abs="112.140239" CO2_abs="118761.835696" HC_abs="4.635375" PMx_abs="1.079147" NOx_abs="71.561399" fuel_abs="49.506907" electricity_abs="0"
            CO_normed="7.925105" CO2_normed="8393.062593" HC_normed="0.327588" PMx_normed="0.076265" NOx_normed="5.057343" fuel_normed="3.498721" electricity_normed="0"
            traveltime="3.25" CO_perVeh="5.757563" CO2_perVeh="6097.532566" HC_perVeh="0.237992" PMx_perVeh="0.055406" NOx_perVeh="3.674143" fuel_perVeh="2.541810" electricity_perVeh="0"/>
        <edge id="-81113584#2" sampledSeconds="21.82" CO_abs="4913.210047" CO2_abs="204920.743254" HC_abs="40.112934" PMx_abs="3.829004" NOx_abs="379.703343" fuel_abs="86.855261" electricity_abs="0"
            CO_normed="573.805553" CO2_normed="23932.349577" HC_normed="4.684722" PMx_normed="0.447183" NOx_normed="44.344916" fuel_normed="10.143680" electricity_normed="0"
            traveltime="2.54" CO_perVeh="572.296342" CO2_perVeh="23869.403230" HC_perVeh="4.672401" PMx_perVeh="0.446007" NOx_perVeh="44.228281" fuel_perVeh="10.117000" electricity_perVeh="0"/>
        <edge id="108488061#1" sampledSeconds="240.93" CO_abs="402.520368" CO2_abs="449538.828154" HC_abs="18.671124" PMx_abs="4.282887" NOx_abs="325.780146" fuel_abs="186.199560" electricity_abs="0"
            CO_normed="8.766165" CO2_normed="9790.141627" HC_normed="0.406623" PMx_normed="0.093274" NOx_normed="7.094902" fuel_normed="4.055089" electricity_normed="0"
            traveltime="10.18" CO_perVeh="17.004893" CO2_perVeh="18991.237212" HC_perVeh="0.788781" PMx_perVeh="0.180935" NOx_perVeh="13.762922" fuel_perVeh="7.866195" electricity_perVeh="0"/>
        <edge id="120359703" sampledSeconds="181.76" CO_abs="302.559064" CO2_abs="314281.671243" HC_abs="11.963676" PMx_abs="2.813705" NOx_abs="175.052805" fuel_abs="131.330988" electricity_abs="0"
            CO_normed="22.951569" CO2_normed="23840.824672" HC_normed="0.907542" PMx_normed="0.213442" NOx_normed="13.279181" fuel_normed="9.962525" electricity_normed="0"
            traveltime="3.04" CO_perVeh="5.055995" CO2_perVeh="5251.888803" HC_perVeh="0.199922" PMx_perVeh="0.047019" NOx_perVeh="2.925267" fuel_perVeh="2.194642" electricity_perVeh="0"/>
        <edge id="15973619#7" sampledSeconds="0.00" CO_abs="0" CO2_abs="0" HC_abs="0" PMx_abs="0" NOx_abs="0" fuel_abs="0" electricity_abs="0"
            CO_normed="0" CO2_normed="0" HC_normed="0" PMx_normed="0" NOx_normed="0" fuel_normed="0" electricity_normed="0"/>
        <edge id="199847241#0" sampledSeconds="4.00" CO_abs="324.550621" CO2_abs="20272.810211" HC_abs="3.533032" PMx_abs="0.329669" NOx_abs="22.139380" fuel_abs="8.502268" electricity_abs="0"
            CO_normed="289.777340" CO2_normed="18100.723403" HC_normed="3.154493" PMx_normed="0.294347" NOx_normed="19.767303" fuel_normed="7.591310" electricity_normed="0"
            traveltime="0.27" CO_perVeh="22.211836" CO2_perVeh="1387.445612" HC_perVeh="0.241796" PMx_perVeh="0.022562" NOx_perVeh="1.515191" fuel_perVeh="0.581884" electricity_perVeh="0"/>
        <edge id="199847241#1" sampledSeconds="9.35" CO_abs="245.932960" CO2_abs="36737.759081" HC_abs="5.192131" PMx_abs="0.543717" NOx_abs="49.442809" fuel_abs="15.058385" electricity_abs="0"
            CO_normed="56.374317" CO2_normed="8421.262827" HC_normed="1.190173" PMx_normed="0.124634" NOx_normed="11.333595" fuel_normed="3.451779" electricity_normed="0"
            traveltime="1.04" CO_perVeh="27.465793" CO2_perVeh="4102.872934" HC_perVeh="0.579857" PMx_perVeh="0.060722" NOx_perVeh="5.521773" fuel_perVeh="1.681720" electricity_perVeh="0"/>
        <edge id="199847244#1" sampledSeconds="4.92" CO_abs="9.202311" CO2_abs="9032.426503" HC_abs="0.314694" PMx_abs="0.074720" NOx_abs="3.704813" fuel_abs="3.802657" electricity_abs="0"
            CO_normed="2.896085" CO2_normed="2842.620457" HC_normed="0.099038" PMx_normed="0.023515" NOx_normed="1.165952" fuel_normed="1.196745" electricity_normed="0"
            traveltime="0.71" CO_perVeh="1.319439" CO2_perVeh="1295.081051" HC_perVeh="0.045121" PMx_perVeh="0.010713" NOx_perVeh="0.531201" fuel_perVeh="0.545230" electricity_perVeh="0"/>
        <edge id="199847244#3" sampledSeconds="7.43" CO_abs="109.154268" CO2_abs="5340.749628" HC_abs="0.640112" PMx_abs="0.071215" NOx_abs="0.931368" fuel_abs="2.343770" electricity_abs="0"
            CO_normed="24.016341" CO2_normed="1175.082426" HC_normed="0.140839" PMx_normed="0.015669" NOx_normed="0.204921" fuel_normed="0.515681" electricity_normed="0"
            traveltime="1.16" CO_perVeh="17.107109" CO2_perVeh="837.024381" HC_perVeh="0.100321" PMx_perVeh="0.011161" NOx_perVeh="0.145968" fuel_perVeh="0.367325" electricity_perVeh="0"/>
        <edge id="199847247#0" sampledSeconds="10.19" CO_abs="2074.699149" CO2_abs="92916.171508" HC_abs="18.728300" PMx_abs="1.655160" NOx_abs="230.397168" fuel_abs="38.751788" electricity_abs="0"
            CO_normed="512.904610" CO2_normed="22970.623364" HC_normed="4.629988" PMx_normed="0.409187" NOx_normed="56.958509" fuel_normed="9.580170" electricity_normed="0"
            traveltime="0.98" CO_perVeh="199.765724" CO2_perVeh="8946.582094" HC_perVeh="1.803284" PMx_perVeh="0.159370" NOx_perVeh="22.184160" fuel_perVeh="3.731278" electricity_perVeh="0"/>
        <edge id="199847247#1" sampledSeconds="401.75" CO_abs="321.045006" CO2_abs="201222.780738" HC_abs="12.422734" PMx_abs="3.027468" NOx_abs="215.482881" fuel_abs="81.194308" electricity_abs="0"
            CO_normed="21.582858" CO2_normed="13527.581898" HC_normed="0.835142" PMx_normed="0.203527" NOx_normed="14.486244" fuel_normed="5.458441" electricity_normed="0"
            traveltime="46.45" CO_perVeh="37.120439" CO2_perVeh="23266.139631" HC_perVeh="1.436364" PMx_perVeh="0.350047" NOx_perVeh="24.914946" fuel_perVeh="9.387993" electricity_perVeh="0"/>
        <edge id="199847252#1" sampledSeconds="28.73" CO_abs="3404.022654" CO2_abs="199048.869367" HC_abs="34.838933" PMx_abs="3.310248" NOx_abs="202.876093" fuel_abs="83.722611" electricity_abs="0"
            CO_normed="228.918807" CO2_normed="13385.936070" HC_normed="2.342901" PMx_normed="0.222612" NOx_normed="13.643315" fuel_normed="5.630303" electricity_normed="0"
            traveltime="4.39" CO_perVeh="520.384670" CO2_perVeh="30429.286393" HC_perVeh="5.325948" PMx_perVeh="0.506049" NOx_perVeh="31.014367" fuel_perVeh="12.798964" electricity_perVeh="0"/>
        <edge id="199847252#2" sampledSeconds="7.50" CO_abs="232.180118" CO2_abs="47451.103238" HC_abs="7.623593" PMx_abs="0.766138" NOx_abs="80.574563" fuel_abs="19.253046" electricity_abs="0"
            CO_normed="58.928964" CO2_normed="12043.427218" HC_normed="1.934922" PMx_normed="0.194451" NOx_normed="20.450397" fuel_normed="4.886560" electricity_normed="0"
            traveltime="0.93" CO_perVeh="28.866824" CO2_perVeh="5899.569162" HC_perVeh="0.947837" PMx_perVeh="0.095254" NOx_perVeh="10.017790" fuel_perVeh="2.393720" electricity_perVeh="0"/>
        <edge id="22972469#0" sampledSeconds="11.80" CO_abs="161.370707" CO2_abs="28101.521653" HC_abs="2.161821" PMx_abs="0.398098" NOx_abs="3.707843" fuel_abs="12.063655" electricity_abs="0"
            CO_normed="11.798260" CO2_normed="2054.580271" HC_normed="0.158057" PMx_normed="0.029106" NOx_normed="0.271091" fuel_normed="0.882007" electricity_normed="0"
            traveltime="5.45" CO_perVeh="74.553212" CO2_perVeh="12982.893512" HC_perVeh="0.998760" PMx_perVeh="0.183921" NOx_perVeh="1.713022" fuel_perVeh="5.573404" electricity_perVeh="0"/>
        <edge id="24214231#0" sampledSeconds="51.83" CO_abs="246.481168" CO2_abs="98325.037789" HC_abs="4.688834" PMx_abs="0.971065" NOx_abs="68.154599" fuel_abs="40.896172" electricity_abs="0"
            CO_normed="28.853517" CO2_normed="11510.101000" HC_normed="0.548883" PMx_normed="0.113675" NOx_normed="7.978297" fuel_normed="4.787378" electricity_normed="0"
            traveltime="1.90" CO_perVeh="9.049578" CO2_perVeh="3610.012616" HC_perVeh="0.172151" PMx_perVeh="0.035653" NOx_perVeh="2.502302" fuel_perVeh="1.501507" electricity_perVeh="0"/>
        <edge id="25042806#1" sampledSeconds="15.34" CO_abs="37.066306" CO2_abs="32938.328526" HC_abs="0.997553" PMx_abs="0.246242" NOx_abs="5.649583" fuel_abs="14.036316" electricity_abs="0"
            CO_normed="2.283463" CO2_normed="2029.159312" HC_normed="0.061454" PMx_normed="0.015170" NOx_normed="0.348041" fuel_normed="0.864705" electricity_normed="0"
            traveltime="3.59" CO_perVeh="8.665978" CO2_perVeh="7700.870197" HC_perVeh="0.233225" PMx_perVeh="0.057570" NOx_perVeh="1.320853" fuel_perVeh="3.281643" electricity_perVeh="0"/>
        <edge id="25945760#0" sampledSeconds="52.42" CO_abs="604.971160" CO2_abs="110424.855738" HC_abs="11.307005" PMx_abs="1.608842" NOx_abs="114.474046" fuel_abs="45.752801" electricity_abs="0"
            CO_normed="58.100472" CO2_normed="10605.028162" HC_normed="1.085907" PMx_normed="0.154511" NOx_normed="10.993906" fuel_normed="4.394027" electricity_normed="0"
            traveltime="3.92" CO_perVeh="45.285853" CO2_perVeh="8265.987134" HC_perVeh="0.846400" PMx_perVeh="0.120432" NOx_perVeh="8.569094" fuel_perVeh="3.424882" electricity_perVeh="0"/>
        <edge id="335462921#3" sampledSeconds="210.57" CO_abs="181.298023" CO2_abs="88814.005171" HC_abs="3.233409" PMx_abs="0.850713" NOx_abs="16.679433" fuel_abs="37.756951" electricity_abs="0"
            CO_normed="10.311277" CO2_normed="5051.272866" HC_normed="0.183899" PMx_normed="0.048384" NOx_normed="0.948638" fuel_normed="2.147417" electricity_normed="0"
            traveltime="32.79" CO_perVeh="28.235728" CO2_perVeh="13832.076229" HC_perVeh="0.503578" PMx_perVeh="0.132492" NOx_perVeh="2.597689" fuel_perVeh="5.880345" electricity_perVeh="0"/>
        <edge id="375311153#1" sampledSeconds="0.00" CO_abs="0" CO2_abs="0" HC_abs="0" PMx_abs="0" NOx_abs="0" fuel_abs="0" electricity_abs="0"
            CO_normed="0" CO2_normed="0" HC_normed="0" PMx_normed="0" NOx_normed="0" fuel_normed="0" electricity_normed="0"/>
        <edge id="375311158#1" sampledSeconds="63.64" CO_abs="288.847559" CO2_abs="52076.184685" HC_abs="4.015613" PMx_abs="0.707296" NOx_abs="22.132940" fuel_abs="22.043977" electricity_abs="0"
            CO_normed="26.069274" CO2_normed="4700.016668" HC_normed="0.362420" PMx_normed="0.063835" NOx_normed="1.997558" fuel_normed="1.989529" electricity_normed="0"
            traveltime="14.25" CO_perVeh="64.694380" CO2_perVeh="11663.717936" HC_perVeh="0.899393" PMx_perVeh="0.158416" NOx_perVeh="4.957206" fuel_perVeh="4.937281" electricity_perVeh="0"/>
        <edge id="42747981#3" sampledSeconds="216.29" CO_abs="2583.622329" CO2_abs="455027.616985" HC_abs="30.517179" PMx_abs="4.782163" NOx_abs="322.848356" fuel_abs="190.382607" electricity_abs="0"
            CO_normed="55.720544" CO2_normed="9813.503359" HC_normed="0.658159" PMx_normed="0.103136" NOx_normed="6.962816" fuel_normed="4.105949" electricity_normed="0"
            traveltime="10.73" CO_perVeh="128.125483" CO2_perVeh="22565.462644" HC_perVeh="1.513390" PMx_perVeh="0.237154" NOx_perVeh="16.010506" fuel_perVeh="9.441343" electricity_perVeh="0"/>
        <edge id="4611722#0" sampledSeconds="42.70" CO_abs="205.053631" CO2_abs="32281.582033" HC_abs="2.037172" PMx_abs="0.351551" NOx_abs="19.600191" fuel_abs="13.566509" electricity_abs="0"
            CO_normed="127.165043" CO2_normed="20019.585757" HC_normed="1.263363" PMx_normed="0.218016" NOx_normed="12.155157" fuel_normed="8.413339" electricity_normed="0"
            traveltime="0.45" CO_perVeh="2.168012" CO2_perVeh="341.310063" HC_perVeh="0.021539" PMx_perVeh="0.003717" NOx_perVeh="0.207231" fuel_perVeh="0.143437" electricity_perVeh="0"/>
        <edge id="4612403#0" sampledSeconds="0.00" CO_abs="0" CO2_abs="0" HC_abs="0" PMx_abs="0" NOx_abs="0" fuel_abs="0" electricity_abs="0"
            CO_normed="0" CO2_normed="0" HC_normed="0" PMx_normed="0" NOx_normed="0" fuel_normed="0" electricity_normed="0"/>
        <edge id="4773464#0" sampledSeconds="169.98" CO_abs="44544.858059" CO2_abs="1500031.451383" HC_abs="316.000094" PMx_abs="28.241493" NOx_abs="2663.154646" fuel_abs="643.027400" electricity_abs="0"
            CO_normed="2889.240023" CO2_normed="97294.078248" HC_normed="20.496196" PMx_normed="1.831782" NOx_normed="172.735829" fuel_normed="41.707631" electricity_normed="0"
            traveltime="3.95" CO_perVeh="1033.825605" CO2_perVeh="34813.690955" HC_perVeh="7.333933" PMx_perVeh="0.655447" NOx_perVeh="61.808199" fuel_perVeh="14.923792" electricity_perVeh="0"/>
        <edge id="505526660#0" sampledSeconds="570.14" CO_abs="629.761166" CO2_abs="322688.947305" HC_abs="18.123794" PMx_abs="4.607620" NOx_abs="209.286940" fuel_abs="132.448055" electricity_abs="0"
            CO_normed="201.201651" CO2_normed="103095.510321" HC_normed="5.790350" PMx_normed="1.472083" NOx_normed="66.864837" fuel_normed="42.315672" electricity_normed="0"
            traveltime="12.23" CO_perVeh="13.503819" CO2_perVeh="6919.342365" HC_perVeh="0.388624" PMx_perVeh="0.098800" NOx_perVeh="4.487690" fuel_perVeh="2.840052" electricity_perVeh="0"/>
        <edge id="66071390#2" sampledSeconds="40.05" CO_abs="71.022969" CO2_abs="75528.353418" HC_abs="2.958386" PMx_abs="0.685596" NOx_abs="46.084667" fuel_abs="31.470898" electricity_abs="0"
            CO_normed="8.323817" CO2_normed="8851.843354" HC_normed="0.346720" PMx_normed="0.080351" NOx_normed="5.401074" fuel_normed="3.688356" electricity_normed="0"
            traveltime="1.96" CO_perVeh="3.473098" CO2_perVeh="3693.415913" HC_perVeh="0.144668" PMx_perVeh="0.033526" NOx_perVeh="2.253589" fuel_perVeh="1.538960" electricity_perVeh="0"/>
        <edge id="707107510#0" sampledSeconds="16.39" CO_abs="6401.317537" CO2_abs="143933.966529" HC_abs="34.094663" PMx_abs="3.331000" NOx_abs="18.845503" fuel_abs="65.546428" electricity_abs="0"
            CO_normed="419.071525" CO2_normed="9422.845599" HC_normed="2.232056" PMx_normed="0.218069" NOx_normed="1.233748" fuel_normed="4.291092" electricity_normed="0"
            traveltime="3.82" CO_perVeh="1490.550692" CO2_perVeh="33515.111871" HC_perVeh="7.938963" PMx_perVeh="0.775625" NOx_perVeh="4.388187" fuel_perVeh="15.262526" electricity_perVeh="0"/>
        <edge id="71143837" sampledSeconds="81.82" CO_abs="188.670540" CO2_abs="153890.013727" HC_abs="6.517666" PMx_abs="1.464263" NOx_abs="107.346744" fuel_abs="63.863408" electricity_abs="0"
            CO_normed="13.335963" CO2_normed="10877.541172" HC_normed="0.460694" PMx_normed="0.103500" NOx_normed="7.587683" fuel_normed="4.514113" electricity_normed="0"
            traveltime="3.15" CO_perVeh="7.269306" CO2_perVeh="5929.243632" HC_perVeh="0.251120" PMx_perVeh="0.056417" NOx_perVeh="4.135973" fuel_perVeh="2.460600" electricity_perVeh="0"/>
        <edge id="81113584#0" sampledSeconds="217.38" CO_abs="826.728912" CO2_abs="114285.925186" HC_abs="7.438296" PMx_abs="1.837191" NOx_abs="48.234010" fuel_abs="47.659788" electricity_abs="0"
            CO_normed="95.880419" CO2_normed="13254.383901" HC_normed="0.862661" PMx_normed="0.213069" NOx_normed="5.593970" fuel_normed="5.527375" electricity_normed="0"
            traveltime="37.95" CO_perVeh="144.337536" CO2_perVeh="19953.032446" HC_perVeh="1.298643" PMx_perVeh="0.320753" NOx_perVeh="8.421114" fuel_perVeh="8.320861" electricity_perVeh="0"/>
        <edge id="KP12_1" sampledSeconds="401.25" CO_abs="11414.693945" CO2_abs="1041358.806908" HC_abs="116.741655" PMx_abs="14.166433" NOx_abs="925.363002" fuel_abs="438.811149" electricity_abs="0"
            CO_normed="329.856782" CO2_normed="30092.726684" HC_normed="3.373549" PMx_normed="0.409375" NOx_normed="26.740731" fuel_normed="12.680571" electricity_normed="0"
            traveltime="9.83" CO_perVeh="279.614428" CO2_perVeh="25509.133104" HC_perVeh="2.859704" PMx_perVeh="0.347021" NOx_perVeh="22.667699" fuel_perVeh="10.749121" electricity_perVeh="0"/>
        <edge id="KP12_2" sampledSeconds="1006.35" CO_abs="1551.453565" CO2_abs="644338.097148" HC_abs="39.006460" PMx_abs="9.955010" NOx_abs="394.506359" fuel_abs="264.973616" electricity_abs="0"
            CO_normed="155.729341" CO2_normed="64676.346012" HC_normed="3.915329" PMx_normed="0.999248" NOx_normed="39.599133" fuel_normed="26.597101" electricity_normed="0"
            traveltime="23.23" CO_perVeh="35.810766" CO2_perVeh="14872.659455" HC_perVeh="0.900350" PMx_perVeh="0.229782" NOx_perVeh="9.106025" fuel_perVeh="6.116141" electricity_perVeh="0"/>
        <edge id="KP21_1" sampledSeconds="120.99" CO_abs="1823.790742" CO2_abs="282599.638988" HC_abs="25.358024" PMx_abs="3.446445" NOx_abs="199.974440" fuel_abs="118.333983" electricity_abs="0"
            CO_normed="183.433819" CO2_normed="28423.398440" HC_normed="2.550468" PMx_normed="0.346638" NOx_normed="20.113094" fuel_normed="11.901834" electricity_normed="0"
            traveltime="3.00" CO_perVeh="45.216167" CO2_perVeh="7006.325987" HC_perVeh="0.628687" PMx_perVeh="0.085446" NOx_perVeh="4.957848" fuel_perVeh="2.933785" electricity_perVeh="0"/>
        <edge id="KP21_2" sampledSeconds="378.23" CO_abs="1433.840523" CO2_abs="634231.688446" HC_abs="30.528972" PMx_abs="6.209430" NOx_abs="354.821774" fuel_abs="265.698469" electricity_abs="0"
            CO_normed="41.443472" CO2_normed="18331.720166" HC_normed="0.882404" PMx_normed="0.179476" NOx_normed="10.255706" fuel_normed="7.679701" electricity_normed="0"
            traveltime="10.16" CO_perVeh="38.519618" CO2_perVeh="17038.409900" HC_perVeh="0.820150" PMx_perVeh="0.166814" NOx_perVeh="9.532161" fuel_perVeh="7.137895" electricity_perVeh="0"/>
        <edge id="KP23_1" sampledSeconds="289.41" CO_abs="7526.845894" CO2_abs="730484.576244" HC_abs="79.032422" PMx_abs="9.282963" NOx_abs="717.506645" fuel_abs="307.008403" electricity_abs="0"
            CO_normed="285.432154" CO2_normed="27701.349118" HC_normed="2.997058" PMx_normed="0.352027" NOx_normed="27.209202" fuel_normed="11.642336" electricity_normed="0"
            traveltime="7.49" CO_perVeh="194.731425" CO2_perVeh="18898.793028" HC_perVeh="2.044694" PMx_perVeh="0.240165" NOx_perVeh="18.563033" fuel_perVeh="7.942794" electricity_perVeh="0"/>
        <edge id="KP23_2" sampledSeconds="232.30" CO_abs="1391.318294" CO2_abs="230795.442519" HC_abs="14.385652" PMx_abs="2.955262" NOx_abs="118.019266" fuel_abs="96.823430" electricity_abs="0"
            CO_normed="172.139597" CO2_normed="28554.957318" HC_normed="1.779852" PMx_normed="0.365637" NOx_normed="14.601827" fuel_normed="11.979391" electricity_normed="0"
            traveltime="5.48" CO_perVeh="32.820863" CO2_perVeh="5444.408765" HC_perVeh="0.339354" PMx_perVeh="0.069714" NOx_perVeh="2.784046" fuel_perVeh="2.284041" electricity_perVeh="0"/>
        <edge id="KP32_1" sampledSeconds="101.59" CO_abs="10299.585205" CO2_abs="532105.094708" HC_abs="90.368791" PMx_abs="9.703109" NOx_abs="496.383279" fuel_abs="227.365604" electricity_abs="0"
            CO_normed="1268.812467" CO2_normed="65550.365840" HC_normed="11.132589" PMx_normed="1.195332" NOx_normed="61.149773" fuel_normed="28.009314" electricity_normed="0"
            traveltime="2.69" CO_perVeh="272.377267" CO2_perVeh="14071.763893" HC_perVeh="2.389844" PMx_perVeh="0.256603" NOx_perVeh="13.127084" fuel_perVeh="6.012788" electricity_perVeh="0"/>
        <edge id="KP32_2" sampledSeconds="266.49" CO_abs="1189.135858" CO2_abs="509072.516926" HC_abs="31.109293" PMx_abs="5.065545" NOx_abs="386.614873" fuel_abs="212.222870" electricity_abs="0"
            CO_normed="45.089994" CO2_normed="19303.157339" HC_normed="1.179611" PMx_normed="0.192077" NOx_normed="14.659773" fuel_normed="8.047127" electricity_normed="0"
            traveltime="7.73" CO_perVeh="34.486042" CO2_perVeh="14763.574630" HC_perVeh="0.902198" PMx_perVeh="0.146906" NOx_perVeh="11.212189" fuel_perVeh="6.154660" electricity_perVeh="0"/>
        <edge id="KP34_1" sampledSeconds="149.41" CO_abs="2325.364387" CO2_abs="320070.085608" HC_abs="26.426244" PMx_abs="3.906877" NOx_abs="266.595113" fuel_abs="134.779440" electricity_abs="0"
            CO_normed="180.156063" CO2_normed="24797.217556" HC_normed="2.047356" PMx_normed="0.302683" NOx_normed="20.654280" fuel_normed="10.441948" electricity_normed="0"
            traveltime="3.61" CO_perVeh="56.150936" CO2_perVeh="7728.782269" HC_perVeh="0.638119" PMx_perVeh="0.094340" NOx_perVeh="6.437514" fuel_perVeh="3.254540" electricity_perVeh="0"/>
        <edge id="KP34_2" sampledSeconds="596.67" CO_abs="913.067791" CO2_abs="469924.816268" HC_abs="22.872515" PMx_abs="6.277780" NOx_abs="244.746536" fuel_abs="194.904284" electricity_abs="0"
            CO_normed="71.083518" CO2_normed="36584.259733" HC_normed="1.780655" PMx_normed="0.488733" NOx_normed="19.053837" fuel_normed="15.173553" electricity_normed="0"
            traveltime="14.40" CO_perVeh="22.039169" CO2_perVeh="11342.807564" HC_perVeh="0.552085" PMx_perVeh="0.151530" NOx_perVeh="5.907568" fuel_perVeh="4.704501" electricity_perVeh="0"/>
        <edge id="KP43_1" sampledSeconds="165.98" CO_abs="6216.586853" CO2_abs="508040.845781" HC_abs="65.603206" PMx_abs="6.985443" NOx_abs="470.929501" fuel_abs="213.658958" electricity_abs="0"
            CO_normed="483.592910" CO2_normed="39520.874818" HC_normed="5.103322" PMx_normed="0.543403" NOx_normed="36.633956" fuel_normed="16.620689" electricity_normed="0"
            traveltime="3.81" CO_perVeh="142.844566" CO2_perVeh="11673.748940" HC_perVeh="1.507429" PMx_perVeh="0.160511" NOx_perVeh="10.821005" fuel_perVeh="4.909450" electricity_perVeh="0"/>
        <edge id="KP43_2" sampledSeconds="1148.68" CO_abs="2353.316064" CO2_abs="781864.452373" HC_abs="46.537169" PMx_abs="11.413049" NOx_abs="358.651751" fuel_abs="325.880269" electricity_abs="0"
            CO_normed="182.109968" CO2_normed="60504.117034" HC_normed="3.601251" PMx_normed="0.883192" NOx_normed="27.754053" fuel_normed="25.218051" electricity_normed="0"
            traveltime="26.89" CO_perVeh="55.094616" CO2_perVeh="18304.605410" HC_perVeh="1.089504" PMx_perVeh="0.267196" NOx_perVeh="8.396569" fuel_perVeh="7.629340" electricity_perVeh="0"/>
        <edge id="KP45_1" sampledSeconds="49.67" CO_abs="1955.136599" CO2_abs="160984.377088" HC_abs="19.873387" PMx_abs="2.249834" NOx_abs="138.371843" fuel_abs="67.707255" electricity_abs="0"
            CO_normed="650.627820" CO2_normed="53572.172076" HC_normed="6.613440" PMx_normed="0.748697" NOx_normed="46.047202" fuel_normed="22.531532" electricity_normed="0"
            traveltime="0.90" CO_perVeh="35.246116" CO2_perVeh="2902.136844" HC_perVeh="0.358266" PMx_perVeh="0.040559" NOx_perVeh="2.494491" fuel_perVeh="1.220589" electricity_perVeh="0"/>
        <edge id="KP45_2" sampledSeconds="510.47" CO_abs="1214.861273" CO2_abs="595745.857675" HC_abs="44.415462" PMx_abs="7.010094" NOx_abs="494.106566" fuel_abs="246.029485" electricity_abs="0"
            CO_normed="71.179802" CO2_normed="34905.279489" HC_normed="2.602341" PMx_normed="0.410728" NOx_normed="28.950143" fuel_normed="14.415086" electricity_normed="0"
            traveltime="11.94" CO_perVeh="28.417248" CO2_perVeh="13935.301070" HC_perVeh="1.038938" PMx_perVeh="0.163976" NOx_perVeh="11.557821" fuel_perVeh="5.754962" electricity_perVeh="0"/>
        <edge id="KP54_1" sampledSeconds="202.78" CO_abs="6696.549668" CO2_abs="557620.195464" HC_abs="64.592957" PMx_abs="7.549450" NOx_abs="394.491359" fuel_abs="236.156647" electricity_abs="0"
            CO_normed="437.539998" CO2_normed="36433.857920" HC_normed="4.220383" PMx_normed="0.493267" NOx_normed="25.775326" fuel_normed="15.430032" electricity_normed="0"
            traveltime="4.48" CO_perVeh="148.105797" CO2_perVeh="12332.736653" HC_perVeh="1.428585" PMx_perVeh="0.166969" NOx_perVeh="8.724860" fuel_perVeh="5.223013" electricity_perVeh="0"/>